40
Lattice="5.48612933 0.16011584 -0.09118651 0.0 8.13569263 0.00934944 0.0 0.0 7.71730919" Properties=species:S:1:pos:R:3:forces:R:3 step=0 confid=0 wdir=cand0 energy=-292.89086045 pbc="T T T"
Al       1.38163970       0.65992479       4.54153926      -0.70187684       1.30619506      -3.99774918
Al       0.01703339       4.80218129       6.25170169       0.53620103       0.52015505       0.90063562
O        4.21947017       3.61340528       6.42372257      -0.86789317      -0.42066995       0.25362335
O        2.88953955       7.88347175       4.30920013       0.04478330      -2.40514272       2.95816707
O        1.32580638       3.47474359       6.12383044       0.64689992       0.55482795       1.15168651
O        0.08724388       7.49570394       4.53549762       0.75626015       0.66475241       0.97543410
Al       2.82488875       4.95813690       2.57567216      -0.57781474       0.67254946      -0.11084492
Al       4.14999252       0.81978823       0.54692858       0.24955752       1.05392912       1.22992160
O        5.45838943       7.64430397       0.39998194       0.48986290       1.15756271       0.05328422
O        1.44477896       3.70727093       2.51697898       0.14540650      -0.42680193      -1.01577495
O        2.90334896       7.54717687       0.66916255      -0.92214208       1.12144734       0.11610675
O        4.03814104       3.72363301       2.42275279       0.89042885      -1.91685418      -0.92287543
Al       2.78722861       7.81013894       2.57217180       1.79463351      -0.09583614      -0.75953141
Al       4.22550261       3.70082534       0.61060061      -0.73769836       0.64172282      -0.11843738
O        0.03237519       4.95689195       0.47044041       0.06402950      -0.60247304      -0.41603483
O        1.62534350       0.94688223       2.68486588      -1.97959293       1.29483897      -1.03223421
O        2.79700281       4.96711548       0.55540524       1.13217863       0.81847181       1.34123792
O        4.15426769       0.90872531       2.34035081       0.22845842      -0.10262126      -0.78862237
Al       1.39895952       3.56638384       4.25268604      -0.68176631       0.07815506       1.32328079
Al       5.41607020       7.77923644       6.25873482       1.73562069      -0.81988719      -0.82975808
O        4.26702652       0.95947467       6.40488431      -0.90988652       1.34557262       0.16751446
O        2.48194614       5.11565786       4.34875571       0.89178855      -0.91945557      -0.42439979
O        1.37199355       0.94581308       6.27616803      -0.66797152      -0.92960036       0.26499569
O        5.48568841       4.84214608       4.39534956      -0.87268608       1.07272646       0.37864063
Al       1.50898138       6.28752616       0.56499730      -1.38487292      -0.20802200       0.55051935
Al       4.18423820       6.36534684       0.55761008       0.90346171      -2.11320040       0.42713034
Al       2.83945925       6.43024817       5.37873089      -0.97912639       0.28631627       0.04970859
O        4.26059266       6.35097661       6.43165539      -0.98274277      -0.00716041      -1.94997556
O        1.36953791       6.39063498       6.49883903       0.37906396      -0.72770543      -1.35253760
Al       2.79158405       2.16535379       6.29825115       0.06169282       1.38138922       0.28419134
Al       0.07001930       2.25360243       6.32639761      -0.73359811      -1.47170785      -0.45323557
Al       1.36173948       2.23941347       1.52567016       1.56278691      -0.16230700       0.83823412
O        0.00545332       2.24564514       0.45728253      -0.80338451      -1.12175839       1.23706243
O        2.75863529       2.08532210       0.35855614       0.97826309       1.30166909       1.27265953
Al       4.07769197       2.28039842       3.40220320      -0.30099493      -0.49042206      -0.17079935
O        2.70501951       2.29632098       4.53953665       0.46703849      -0.00382051      -0.80330973
O        0.03990638       2.10937502       4.41112445       1.50554386      -0.22625533       1.30550019
Al       0.15743562       6.08834148       3.52160632      -0.40720889       0.65673425      -0.73799393
O        1.52610776       6.49951382       2.48049615       0.41807338      -1.93129742      -1.91634599
O        4.22536041       6.21367068       2.37751193      -1.37077660       1.17398349       0.72092570
40
Lattice="5.20020723 -0.01860814 -0.08326462 0.0 7.92941918 0.0402004 0.0 0.0 7.5612924" Properties=species:S:1:pos:R:3:forces:R:3 step=0 confid=1 wdir=cand1 energy=-285.74713646 pbc="T T T"
Al       1.80869406       0.55687988       4.56169809       2.74981422       0.80479078       0.28165050
Al       0.63164187       4.53257341       6.53161496      -0.26107673      -1.34855955      -0.72701118
O        4.43158176       3.20563755       6.61396188       1.87591659       0.88456698       0.96025056
O        3.19280514       7.22820088       4.59868346      -0.30510535       1.48531543      -0.65971463
O        1.81959942       3.15238112       6.45647088      -0.05652571       0.66328849       1.11757456
O        0.68747530       7.21909079       4.66841571      -1.52654270      -1.11538448       0.69104806
Al       3.29404896       4.53465506       2.84367816      -0.23863157      -0.88582554      -0.44869028
Al       4.58619333       0.52840014       0.95973995       0.82433078       1.08321071       1.19212342
O        0.66677816       7.21586454       0.70929243      -1.35919710       0.06797856       0.84955719
O        1.97996455       3.28662287       2.95999320       0.39384455       3.29627995      -0.82225166
O        3.31364277       7.18520170       0.97079301      -1.20113987      -0.28449949       0.42381647
O        4.60302354       3.27612154       2.72446804      -0.25863266       0.64341346      -0.57686771
Al       3.18096910       7.25004406       2.85203377       1.54920538       0.70307149      -0.06228190
Al       4.61056260       3.31525083       0.97236582      -0.28892618      -0.23509766      -0.68983683
O        0.59262581       4.69045169       0.75767593       0.92980958      -0.68279275       0.56307328
O        2.05162273       0.76369976       2.84205323       0.61153685      -2.28406895       0.19418750
O        3.34768312       4.54326131       0.97829661      -2.31184225       2.09446163      -0.30144646
O        4.62305729       0.48420222       2.76161794      -0.50636441      -0.82421855      -2.07108109
Al       1.87238308       3.28920484       4.61882089       0.30420944      -0.55201011       2.14426423
Al       0.58219955       7.20431597       6.38111863       0.48035755       2.14872476       1.89584408
O        4.44993636       0.64424236       6.72336073       1.68932105      -1.23877272      -1.46679103
O        3.16862152       4.52557851       4.56680285      -0.36482449       1.06599256       1.38968215
O        1.88287294       0.52076783       6.43621532      -0.85329054       2.03421325       0.20295497
O        0.53945738       4.47540785       4.75118058       0.34706758      -2.32786372       3.18000587
Al       1.91335546       5.97638065       0.93092862       0.78342470      -0.92711245      -1.72262388
Al       4.52856318       5.94326948       0.70698039      -0.25862553      -1.24521873       3.19006626
Al       3.20123670       5.90189820       5.57211465       0.11503653      -1.26539912      -0.51707131
O        4.60788969       5.88979190       6.52615452      -0.22967626      -0.28070879      -0.95686389
O        1.93225286       5.91735819       6.68655040      -1.28035277      -1.08969997      -0.35495704
Al       3.16321950       1.87006042       6.60937216      -1.13774898       0.37748616       0.91177396
Al       0.48668297       1.93763511       6.58049013       1.47665340      -0.67378722      -0.69038496
Al       1.93472509       2.12413160       1.89389075       0.83926727      -2.73794521      -3.34191506
O        0.60226236       1.99765480       0.86631144      -0.07821144      -0.69218059      -0.47423939
O        3.38213584       1.95837407       0.87106215      -1.78559095      -0.46048470       0.24542874
Al       4.35384750       1.89325317       3.61974696       1.71211274      -0.35314805       2.23719465
O        3.22857778       1.99967356       4.90008484      -1.41206122      -1.10042872      -2.65130644
O        0.68287041       1.87907750       4.76194723      -2.10720550       0.72575847      -0.83166577
Al       0.65727411       5.76186264       3.84119885      -1.21435501       2.79558789      -4.18812373
O        1.87291308       5.90495506       2.62654431       1.86522385       0.10037646       1.71014908
O        4.46544182       5.82301639       2.67102682       0.48879514       1.63069002       0.17447871
40
Lattice="5.58670379 0.0 -0.05753079 0.0 8.413 0.0 0.0 0.0 8.068" Properties=species:S:1:pos:R:3:forces:R:3 step=0 confid=2 wdir=cand2 energy=-298.7478047 pbc="T T T"
Al       2.05032029       0.63097500       4.91650220      -0.02653431       0.09343209       0.18313542
Al       0.64805764       4.87112700       6.94794243       0.06428482      -0.05677430       0.01724500
O        4.96657967       3.41567800       7.20198713      -0.08502205      -0.10207029      -0.00236146
O        3.37995579       7.71472100       4.91894587       0.02853651       0.19021613      -0.10418966
O        1.99445325       3.41567800       6.86146551       0.02239903      -0.02557715       0.04994433
O        0.77096512       7.70630800       5.13137675      -0.10392273       0.15241954      -0.00537781
Al       3.53638350       4.83747500       3.09396701       0.02653500       0.09343435      -0.18313374
Al       4.93864615       0.66462700       1.06252678      -0.06428210      -0.05676982      -0.01724597
O        0.62012412       7.62217800       0.80848208       0.08501961      -0.10207109       0.00236482
O        2.20674800       3.50822100       3.09152334      -0.02853106       0.19021953       0.10418231
O        3.59225054       7.62217800       1.14900370      -0.02239218      -0.02558101      -0.04993384
O        4.81573867       3.49980800       2.87909246       0.10391623       0.15241556       0.00537664
Al       3.53638350       7.78202500       3.09396701       0.02653510      -0.09343327      -0.18313116
Al       4.93864615       3.54187300       1.06252678      -0.06428360       0.05677203      -0.01724824
O        0.62012412       4.99732200       0.80848208       0.08501785       0.10207363       0.00235990
O        2.20674800       0.69827900       3.09152334      -0.02853433      -0.19021915       0.10418620
O        3.59225054       4.99732200       1.14900370      -0.02239364       0.02557792      -0.04994509
O        4.81573867       0.70669200       2.87909246       0.10391920      -0.15242053       0.00538245
Al       2.05032029       3.57552500       4.91650220      -0.02653486      -0.09343195       0.18313445
Al       0.64805764       7.74837300       6.94794243       0.06428636       0.05677315       0.01724575
O        4.96657967       0.79082200       7.20198713      -0.08502262       0.10206871      -0.00236642
O        3.37995579       4.90477900       4.91894587       0.02853198      -0.19022154      -0.10418131
O        1.99445325       0.79082200       6.86146551       0.02240023       0.02557521       0.04994315
O        0.77096512       4.91319200       5.13137675      -0.10391924      -0.15241313      -0.00537808
Al       2.10618733       6.30975000       0.99487889       0.11099699      -0.00000124       0.03249018
Al       4.88836582       6.30975000       0.95816056      -0.05499144      -0.00000132       0.08119737
Al       3.43582283       6.30975000       5.97527856      -0.02650169      -0.00000013       0.09496025
O        4.92188604       6.30975000       7.00074737       0.12545064       0.00000168       0.13500899
O        2.03356018       6.30975000       7.15151079      -0.18829427      -0.00000023       0.19823263
Al       3.48051646       2.10325000       7.01559032      -0.11100266       0.00000039      -0.03249426
Al       0.69833797       2.10325000       7.05230865       0.05499430       0.00000109      -0.08119554
Al       2.15088096       2.10325000       2.03519065       0.02649866       0.00000119      -0.09496324
O        0.66481775       2.10325000       1.00972184      -0.12545015      -0.00000046      -0.13500995
O        3.55314361       2.10325000       0.85895842       0.18829516      -0.00000250      -0.19823278
Al       4.84925889       2.10325000       3.96792727      -0.01118507      -0.00000061       0.19692344
O        3.43023613       2.10325000       5.12819609      -0.03775661      -0.00000216       0.05370055
O        0.73744490       2.10325000       5.05104194       0.07629205       0.00000265      -0.04722779
Al       0.73744490       6.30975000       4.04254194       0.01118318      -0.00000033      -0.19692306
O        2.15646766       6.30975000       2.88227312       0.03775329       0.00000714      -0.05370232
O        4.84925889       6.30975000       2.95942727      -0.07629159       0.00000021       0.04722787
40
Lattice="5.35783845 0.00777308 -0.05419436 0.0 7.98605412 -0.06374276 0.0 0.0 7.65843146" Properties=species:S:1:pos:R:3:forces:R:3 step=0 confid=3 wdir=cand3 energy=-290.66717379 pbc="T T T"
Al       1.43691966       1.80130408       5.46950648      -0.57961899       1.98283185       2.63081395
Al       0.10657968       5.99013141       7.39502422       1.59346462      -1.15429489      -0.01084933
O        4.21369166       4.54616729       0.01173330       0.82210166       2.12807032      -1.13579590
O        2.79019799       0.73771048       5.51169420       0.90058773      -1.67125548      -0.13630083
O        1.38342732       4.66968599       7.34662700       1.16013129       0.04213748       0.64608339
O        0.17403304       0.57829243       5.75733644      -0.14317324       1.35685216      -0.36766766
Al       2.91210130       5.99158723       3.79825504      -0.45056289      -0.08077056       0.23792642
Al       4.21696926       2.00623716       1.77577187      -0.67069189      -0.18089269      -0.65003224
O        0.08983348       0.60903437       1.67935341      -0.27330926       0.67564023       0.28982498
O        1.48038930       4.84635767       3.78799501       0.81051322      -0.89798705      -3.20530360
O        2.88864415       0.55968300       1.84241301      -0.20498191       2.63392293       0.16299803
O        4.19512541       4.70415960       3.55379914      -0.58469591       1.38112650      -0.21630295
Al       2.88650134       0.84166762       3.65932883      -0.56873066      -0.73886462       1.93959784
Al       4.17297878       4.75179511       1.81519513       0.13420040      -0.48493883      -0.25398438
O        0.09757995       6.06197687       1.59019252       0.48359016      -0.19270934       1.05830458
O        1.51017074       1.98460381       3.77608418      -0.26507669       0.99130317      -1.98931227
O        2.90823825       6.12168810       1.87524429      -0.63718426      -1.43706681       0.29935792
O        4.10686220       2.10407021       3.49760274       0.28059472      -0.07635860       1.14572147
Al       1.43269227       4.64630729       5.44934215       1.34969303       0.62629424       2.96424266
Al       0.12078486       0.76002408       7.50036881       0.56710259      -0.33272000      -0.39917665
O        4.18794987       2.05064839       7.51376271       0.24481278       0.26913061       1.33936867
O        2.90217392       5.81168400       5.63676479      -0.66487863       0.33253424      -1.99124220
O        1.38913894       2.15418713       7.42399159       1.29837957      -1.80544518      -0.66108131
O        0.19762671       5.91184452       5.64001254      -0.42354993      -0.23500400       0.52380583
Al       1.49423299       7.33006294       1.72038021      -0.39164478      -0.12159902       0.09883896
Al       4.14297205       7.36943214       1.75273163       2.03759964      -1.00420411      -0.71726699
Al       2.87556813       7.29111089       6.43947787      -0.58063373       1.58450162       1.43143198
O        4.29573308       7.24104922       7.49982288      -2.36227484       2.16272664      -0.45581717
O        1.46396254       7.48269162      -0.07351698       0.60676508      -1.86465332      -0.86290786
Al       2.91922546       3.40644540       7.43181580      -3.15236241      -1.31114813      -0.66325448
Al       0.18482651       3.37455554       7.55637301       0.21437750      -0.44530919      -0.37174318
Al       1.46307989       3.40898600       2.78518338       2.16618476      -0.08296377       0.02628805
O        0.16354700       3.25861691       1.74078743      -1.91228327       1.31122208      -0.57847713
O        2.84629944       3.40222399       1.56948883       0.16246267      -0.38857499       2.10641746
Al       4.24058876       3.42723163       4.64282649      -2.42478033      -1.51974150      -0.35254469
O        2.75626348       3.28913287       5.62553356       0.31744901       0.49367766      -0.13232134
O        0.23510517       3.34240387       5.66348636       0.12457162      -1.16355806       0.01545044
Al       0.21415998       7.24568529       4.64703927      -0.93250874       0.70670317      -0.94292461
O        1.47571362       7.45025063       3.52616589       2.09477046      -1.02513946      -0.07460268
O        4.10038591       7.39916505       3.66364541      -0.14641016      -0.46347531      -0.74756317
40
Lattice="5.43718436 -0.07001158 -0.04828469 0.0 8.30320331 0.01861655 0.0 0.0 7.93910635" Properties=species:S:1:pos:R:3:forces:R:3 step=0 confid=4 wdir=cand4 energy=-295.24473301 pbc="T T T"
Al       2.05346734       0.59459350       4.82947158      -1.39150503       0.17302188      -0.48065591
Al       0.63334411       4.76253278       6.90089889       0.04589611      -0.11118335      -1.19890257
O        4.82797961       3.35302843       7.13181744      -0.73656409      -0.65478572      -0.94405608
O        3.26663780       7.55835826       4.83641353       0.68733576       0.11576363       1.21160140
O        1.94096895       3.28388050       6.89036358      -0.00923042       0.95105210      -0.98564510
O        0.71752516       7.60019439       5.04927462       0.07667036      -0.58480823      -1.29176410
Al       3.56181373       4.71511699       3.04324850      -2.71838263      -0.31384054       0.08917549
Al       4.81689395       0.59229346       1.10418501       0.22986025       0.24827861      -2.07898406
O        0.57460327       7.53196539       0.74200504       0.68137870      -0.05900003       0.66145694
O        2.13485106       3.48891367       3.03121652       0.08510267      -0.03083153       0.59133423
O        3.43868820       7.41421438       1.16628245       0.55695350       1.70311566      -1.01903995
O        4.74378481       3.39674079       2.73694440      -0.21454711      -0.16888658       1.37447683
Al       3.41279105       7.58372362       3.06640050      -0.60216641       0.30637022      -0.72662464
Al       4.80960866       3.49055463       0.97172383       0.28532514      -0.99907819       0.57847448
O        0.71464361       4.89438949       0.76852367      -2.14585665       0.56578602       1.56045913
O        2.22512969       0.66580227       3.05528064      -0.99901139       0.88794525      -0.45380548
O        3.40516801       4.97928608       1.12449697       1.96111345      -2.29582479      -0.33311751
O        4.66484260       0.64898324       2.80751740       0.45034548      -0.65987209       1.40500381
Al       1.96674317       3.44117322       4.92054891      -0.31996227       0.79198185      -1.01858472
Al       0.73062649       7.66954127       6.79260788      -1.77212887      -0.83009622       0.97500302
O        4.83021848       0.74869863       7.09361701      -1.48978172      -1.23963059      -0.10321698
O        3.21196517       4.76906073       4.79568716       1.09037096       0.84720678       1.26186779
O        1.87116241       0.84243544       6.67318122       1.93901067      -3.13723081       1.13454439
O        0.69506366       4.74418466       5.12024661      -0.35358615       0.58476874      -1.39884405
Al       2.05156074       6.17281034       0.97009277      -0.58814183       0.64960605       0.99473403
Al       4.72905275       6.19109864       0.87513705       0.40267971      -0.13571471      -0.47146076
Al       3.28826203       6.16782185       5.89662003       0.73685701      -0.72178939      -0.61971879
O        4.81945856       6.14177355       6.82455071      -0.79430468       0.21590765       1.10838827
O        1.91848941       6.13528363       7.04731147       1.21045902       1.26200274      -0.49796130
Al       3.30016908       1.96930082       6.99508332       0.97864470       0.81360643      -2.06762818
Al       0.63996639       2.01521171       6.92392311      -1.15655533       2.65125111       0.59244376
Al       2.14164950       2.10291961       2.02657700      -0.85746522      -0.82273152      -0.58140133
O        0.64937244       2.07871755       1.02880168      -0.11233234      -0.34422762      -0.46590743
O        3.42813022       1.97297408       0.76609191       0.26966897       0.31652774       2.85617716
Al       4.66847061       1.99717854       3.90593151      -0.31408238       0.76882148      -0.05116319
O        3.23228175       2.09861456       5.09254809       1.58807809      -0.89569442      -0.71186487
O        0.60936238       2.01889053       5.00794500       0.90602995       0.58623258      -0.37054772
Al       0.61327856       6.13176893       3.94567857       2.34811154       0.49520497       1.79147015
O        2.05260669       6.27066183       2.84564018      -0.92361357      -0.69356513       0.18539158
O        4.62762909       6.18074276       2.94171617       0.96932607      -0.23566002      -0.50110771
40
Lattice="5.38958348 -0.00899739 -0.08152772 0.0 8.05192305 -0.13282403 0.0 0.0 7.71397871" Properties=species:S:1:pos:R:3:forces:R:3 step=0 confid=5 wdir=cand5 energy=-290.84636136 pbc="T T T"
Al       1.43123267       1.31488163       5.12250595      -0.26833686       0.45107631       0.05842300
Al       0.01198336       5.37909698       7.13510487       0.74475655      -0.42799247      -0.90509955
O        4.13864315       4.00597654       7.18891523       0.53271790       0.43275179       0.70668047
O        2.70394616       8.02452849       4.96480192      -0.03093939      -0.67565089       2.78514357
O        1.30930542       3.90912596       7.13492753       2.24761016       2.30830893      -0.66013331
O        0.15961456       0.16165071       5.38208745      -1.37862472      -1.96429390       0.11857314
Al       2.94823491       5.28912815       3.38422739      -0.70529399       1.49411991      -0.24903790
Al       4.17045280       1.39455266       1.48334101       0.11274481       0.96228497       0.16286777
O        0.02663990       0.07379641       1.34822124       0.74495841      -0.22003038       0.50539536
O        1.77427195       3.89377544       3.50431976       0.59321505       0.29727467      -2.06560612
O        2.83965647       0.01903929       1.56527688      -0.32757537       0.77120228      -0.49628600
O        4.44781079       4.31484895       3.16755818      -0.62394070      -0.16219868       0.44983529
Al       2.87102083       0.23727159       3.41176375       0.81762902      -1.13624873      -0.07976614
Al       4.25911026       4.13308479       1.43187266      -0.42255472       0.13280579      -0.65328152
O        0.10371386       5.55319052       1.18109255      -1.25002520      -1.25741796       1.01129130
O        1.43067625       1.28947287       3.37685207      -0.06159879      -1.20812128      -0.56833653
O        2.98495064       5.54950156       1.55220809      -1.37568649      -1.47726834      -2.03504196
O        3.98865180       1.68342943       3.22948469      -0.00516450      -2.98256150      -1.26695995
Al       1.44012479       4.14681549       5.25800499       2.60371847      -2.70116056      -1.50847138
Al       0.06937466       0.11463182       7.20616461       1.68097813       1.56981571      -1.60270667
O        4.22370081       1.49648228       7.27631239      -0.28420442      -1.48486191       0.37313470
O        2.92991302       5.22632983       5.16989247       0.10723897       0.76131569       1.03999095
O        1.33245977       1.47881668       6.95266327       0.98656813      -0.60426636       1.91098031
O        0.36970117       5.39204201       5.43051240      -2.39988348       3.19314523      -1.30688783
Al       1.43581819       6.66270200       1.36930570       1.50360047       1.28643694       0.99531233
Al       4.12461962       6.86019378       1.34715183       1.63105571      -0.76756350      -0.29122543
Al       2.73547307       6.67152556       6.14127022       1.52273125       1.34050593      -0.91987125
O        4.36043508       6.85028926       7.06701212      -4.75949614      -2.01962430      -0.20161344
O        1.39544773       6.82257760       7.25968915       1.08096662      -0.47859420       0.15194802
Al       2.83113446       2.57002900       7.12200584      -1.40477913       1.66931739       0.92193285
Al       0.07977343       2.75523248       7.03779742      -1.23691468      -0.86740625       0.29680766
Al       1.42922263       2.56953499       2.28858910       2.48110312       2.18282486       2.16183072
O        0.05981198       2.74381581       1.37507580      -1.31115512       0.32946258      -1.41747605
O        2.89750950       2.81631388       1.29175918      -0.36996278      -0.85291771      -0.97248392
Al       4.03876684       3.01298446       4.24567275       1.00596651       0.23718650       0.04039606
O        2.79975291       2.57521899       5.34857873      -0.96964248       0.84899388       1.03403158
O        0.21517303       2.80316982       5.09377065      -0.62735575      -0.33838462       2.52259629
Al       0.23399297       6.74810153       4.29701607      -1.64279079       0.47257870      -0.08324429
O        1.55118297       6.59578916       3.20671194       0.47735601       0.39985768      -1.07605983
O        4.15202608       6.84516944       3.17591469       0.58101024       0.48529776       1.11241765
40
Lattice="5.17176162 0.12164737 -0.00823945 0.0 7.97648726 0.01150446 0.0 0.0 7.70671796" Properties=species:S:1:pos:R:3:forces:R:3 step=0 confid=6 wdir=cand6 energy=-287.20631702 pbc="T T T"
Al       1.94080833       0.67399882       4.71126591       1.83044072      -0.53319113       0.40501148
Al       0.57833266       4.65586577       6.62043853      -0.39176806       0.15580033      -0.05775674
O        4.43654202       3.35325265       6.92433085       2.24816794       1.02887838      -1.08196789
O        3.33209754       7.36670150       4.64329774      -0.70273580       0.31160450       1.93698684
O        1.90176215       3.31466621       6.38566375      -1.47030150       0.19263867       3.38286499
O        0.75022639       7.42384172       5.00106557      -0.60740383      -0.96947624      -0.40536917
Al       3.15341685       4.65983523       3.01570950       2.36707071       0.62579548      -0.85088154
Al       4.56834085       0.69857300       1.09420361       0.76602823       0.64993699      -3.07583933
O        0.65186688       7.30865799       0.89674996       0.24429589      -1.33080011      -0.92199387
O        2.00651618       3.39391256       2.97796319      -1.37730741      -0.89715426      -1.24566256
O        3.30228021       7.35201713       1.10489373      -0.19624340       0.05302770      -0.79358613
O        4.44551824       3.43310805       2.76134306       0.42985286       0.07343405       0.80891645
Al       3.28985800       7.32523224       2.93457484       0.65094117       2.41684277       0.12282982
Al       4.60087620       3.46347516       1.04098199      -0.72166007       0.75786494       0.24164665
O        0.64468765       4.70477967       0.72534535      -0.34537145      -0.03306226       1.11457541
O        1.97935124       0.58098076       2.97597108       1.28695875       0.85168354      -1.39356446
O        3.19314559       4.80401401       1.10884802       2.59779107      -1.53946129      -0.51802913
O        4.72908060       0.70123816       2.70867519      -1.92232630      -1.17182494       3.35296192
Al       1.68991107       3.46216600       4.66265865       1.06031148       0.82322867      -0.35657249
Al       0.60104879       7.43479637       6.75647740       1.02886834      -1.59526836      -1.09886677
O        4.60493267       0.82239611       6.89677150      -0.49971214       0.86349381       0.55708259
O        2.99581356       4.71581231       4.73561135       0.19983980       0.18560513       0.50850065
O        1.88149401       0.83282369       6.59570039       0.86849058      -1.48272073       1.06760708
O        0.43654524       4.78046440       4.88415461       0.60974503      -1.73769466       0.24358452
Al       1.98713283       6.01329910       0.97491957      -1.53525573       1.08747213      -1.12499081
Al       4.53823753       6.05745632       0.94184942      -0.16277838       0.26076459       0.51341719
Al       3.08064106       6.09223004       5.75223722       3.02042337      -0.25569870      -1.85132000
O        4.48042597       6.14931691       6.80558106       0.72534575      -0.08547267       0.27101760
O        1.87157773       6.04973462       6.85749504      -2.09539763       0.01944937       1.39902722
Al       3.27302568       1.98969701       6.70178003      -1.14592310       0.94636282      -0.29797399
Al       0.66286500       2.04872948       6.82368120       0.11271448       0.67192322      -0.60978122
Al       2.13825900       1.98427399       2.01241527      -2.00203035       0.17904812       0.17461487