40
Lattice="5.587 0.0 0.0 0.0 8.413 0.0 -0.0830783 0.0 8.06757225" Properties=species:S:1:pos:R:3:forces:R:3 step=0 confid=0 wdir=cand0 energy=-285.21853033 pbc="T T T"
Al       1.83457998       0.64576800       5.03021996       1.65604480       1.01649109      -0.52873094
Al       0.18777002       4.69978002       6.75482996       2.49904751       4.81883481      -0.60479876
O        4.92676998       3.27793002       6.94684004      -1.57419043      -2.03802372       2.46799023
O        3.03560001       7.73631002       4.96685999       1.76809131      -1.17674008      -2.38861945
O        2.06846997       3.40602997       6.97964997      -0.77236324      -0.16353623      -1.76615155
O        0.53804902       7.83798996       5.20804999      -1.32324074       0.83637189       2.34535112
Al       3.92379997       4.74100002       3.39620000      -2.36293611       1.47926305       1.30985087
Al       5.34870999       0.67054504       1.34002004      -1.53360867      -0.19523289      -1.20349866
O        0.62600799       7.51989998       0.99968902       0.59068521      -0.33253967      -0.83284171
O        2.27598998       3.50436002       3.42509998       1.81625464      -0.44715660     -10.15808734
O        3.70038999       7.92599002       1.17057997       0.05885507      -0.73374547       0.86536396
O        4.55517999       3.31457999       2.76126004       2.61647275      -0.38225833       0.56617774
Al       3.57729000       7.98270996       3.02765999      -1.11716389      -0.43293563       0.34664473
Al       4.62490000       3.55630996       0.85666904       2.13872213      -0.43296488       1.04797082
O        0.41847997       4.81530001       0.54320602       0.02369088       1.12032765       2.09298500
O        2.19363002       0.71554904       3.15565001       0.20901918       1.76256335      -1.05084148
O        3.50699002       4.94492003       0.73574202      -3.53890786      -2.11517631       2.16873958
O        5.19280001       0.70022198       3.11842002      -2.13798690      -0.82423882      -0.58019875
Al       1.95007001       3.57193004       4.91135001      -0.49393093       0.54164781       8.29940189
Al       0.34260599       7.64897004       7.20842002       3.12311972       0.87389983      -2.13192932
O        5.13410997       0.83119599       7.25992001      -0.88230750       0.22399588       1.75241278
O        3.81712000       4.66637999       5.24881002      -1.52619174       1.97477784      -2.00226062
O        2.08280997       0.78244299       6.84423004      -1.34831685       0.45993388       1.62616768
O        0.84732103       5.01802000       4.90242002      -0.58817284       0.81788947       1.91769234
Al       1.86675002       6.03697000       1.00328998      -1.37232782      -0.38715195      -0.77914227
Al       4.43610002       6.26229000       0.99293896       4.99138721       4.46385505      -0.84199443
Al       3.26233998       6.30326997       5.79129004      -0.12565155      -1.34547008       4.97640466
O        4.69962002       6.45576998       7.21104996      -1.51110381      -1.85585296      -2.81817466
O        1.91597999       6.20518003       7.20241000      -0.87552397       1.27030018      -1.17812799
Al       3.43731001       2.04276003       6.93010999       0.70968868      -0.95697903       3.40398467
Al       0.81522899       2.12133997       7.18758002      -0.30502294      -0.96408274      -0.38043981
Al       2.22591002       2.30007003       1.91337998      -0.71470096      -0.52344101       4.79102654
O        0.69289000       2.34158003       1.07032997      -0.22075907      -1.89965366      -0.77245052
O        3.56156000       2.07285997       0.90425900       1.34654086       0.59613884      -2.51163806
Al       4.91977997       2.08031002       4.17436002      -2.64434301      -0.03365799      -1.57248476
O        3.52835997       1.86188002       5.29713002       0.19185954       0.77988230      -5.05746968
O        0.73788899       2.18694000       5.09451004       1.61390647       0.16534798       0.79068420
Al       0.82134498       6.72764996       4.04266997       0.00915168      -3.99433912      -2.97859126
O        2.10306001       6.27779002       2.84684996       0.20837742      -0.06841602      -0.60161901
O        4.65848001       6.40901002       2.88351998       1.39783577      -1.89792774       1.97124221
40
Lattice="5.65264195 0.0 0.0 0.0 8.51353961 0.0 -0.08383614 0.0 8.14116443" Properties=species:S:1:pos:R:3:forces:R:3 step=0 confid=0 wdir=cand1 energy=-292.81818898 pbc="T T T"
Al       2.01289998       0.50798103       5.05266000      -0.02814871      -0.73838618      -0.03828527
Al       0.50509299       4.98820000       7.01430003       1.89160690      -0.10416205       0.26861093
O        4.80343000       3.58726003       7.29625004       0.49038480      -1.07168613      -1.35047869
O        3.34475998       7.52539997       5.09293002      -0.66276376       3.17399171      -2.74532052
O        1.76996001       3.34370000       6.85116998       1.01057573       0.46517998       0.00419791
O        0.65578898       7.72330001       5.16944997       0.21782866      -0.20992129       0.27776799
Al       3.68939001       4.85123997       3.20603997       0.35686899      -1.50017117      -3.10851587
Al       4.72650001       0.70603201       1.10758002       2.33024749      -0.97952717       1.19762473
O        0.61480900       7.59794997       0.74935201      -0.00831398       1.05444641       0.82037517
O        2.36231000       3.50814004       3.00955997      -0.38446136       1.21450942       0.89330583
O        3.60189001       7.58444997       1.04117002       2.23381999       2.15398628       1.84635987
O        4.94614000       3.46301999       2.77763000      -0.79382872      -0.37106011       2.44543471
Al       3.48470999       7.72593001       3.20744001      -0.87857041       1.12366835       0.91292852
Al       5.09841998       3.57754003       0.95017403      -0.69685004       0.95045065       2.12506669
O        0.62006299       5.03014996       0.83381700       0.22207428      -0.01697841      -0.87992560
O        2.24989002       0.73220297       3.27236001      -0.38223260      -0.39630325      -1.30648227
O        3.68598002       4.98465003       1.07870999       0.09734327       1.01781078       1.50855531
O        4.71066998       0.56232304       2.98691003       0.72023421      -0.25665983      -1.15029372
Al       2.01912001       3.70269996       4.70898001      -0.11642220      -1.93722645       3.36862709
Al       0.42423000       7.94715000       7.08013998       1.09087864      -0.39875780      -1.06163548
O        4.87656001       0.96114704       7.40500998       0.37650078      -1.53644508      -2.14856762
O        3.43767997       4.87258001       4.95142999      -0.64894486      -0.58990766       0.15866847
O        1.93266002       0.60764103       7.06698004      -0.87009141       1.25556760      -2.19398459
O        0.68127099       4.82255002       5.11336003      -0.24802879       1.18740148      -0.35514692
Al       2.28645999       6.51310997       0.90312103      -2.96163363      -2.92624347      -0.64569006
Al       4.98598999       6.33460999       1.11832001       0.35190301      -0.86049052      -1.06114471
Al       3.51639997       6.21909003       6.12395998      -0.69769908      -0.76731257       0.44988061
O        4.94775001       6.45188996       7.14682003       0.29587476      -1.01197636      -0.72611808
O        2.13703000       6.25081999       7.19008999      -2.03368065      -0.56009303       0.88716398
Al       3.27323999       1.95670001       7.11486002      -1.28836633       0.78842357       0.13990999
Al       0.38772203       2.27349997       6.76140998       0.33691287      -0.85772351       2.11917078
Al       2.09231002       2.19233001       1.95754999      -0.92292620      -2.47887376       0.47297564
O        0.53033798       2.11356002       1.02243003       0.91892084      -0.48037248       0.34332559
O        3.46485002       1.86947003       0.86912303      -1.41996232       2.24389046      -0.41402925
Al       4.81057998       1.95796002       4.05912003      -1.50626504       1.01519428      -2.20246496
O        3.35194000       2.07206997       5.23553001       0.40134803      -0.33597034       0.00943543
O        0.58380800       1.99288000       5.01418998       1.00734875       0.18898491       0.26912828
Al       0.66863399       6.24355002       4.00490003       0.81628389       1.75627322       1.50719692
O        2.00896000       6.31299003       2.79139996       1.55345253       0.54845571       0.84202890
O        4.79297003       6.32204997       3.13190001      -0.17121834       0.24801381      -1.47965576
40
Lattice="5.76990074 0.0 0.0 0.0 8.55410849 0.0 -0.08178681 0.0 7.94215862" Properties=species:S:1:pos:R:3:forces:R:3 step=0 confid=0 wdir=cand2 energy=-290.50520153 pbc="T T T"
Al       1.95362003       0.53756900       4.97334002      -1.45379883       2.76205226      -0.01293044
Al       0.45874899       4.73003997       6.90331998      -1.30790837       1.53002791      -0.86972183
O        5.00242999       3.16469996       6.84903001      -1.62149809       1.45662225       2.08453612
O        3.24293001       7.98405004       5.04565996       2.42284344      -3.52078397      -1.20878517
O        1.78718998       3.60088003       6.80408001       2.05256752      -2.76653117       0.81631770
O        0.71236101       7.71375997       5.16297001      -0.07547459       1.25725716      -0.23639876
Al       3.50457999       4.75037000       2.98980004      -0.16518294       1.86665086       1.53769264
Al       4.73659001       0.67032201       1.15702002       1.85760436      -1.00730216       0.95934721
O        0.63006103       7.64969004       0.73413399      -0.17375537       0.56002261       3.17448344
O        1.86631001       3.67559999       3.18289997       2.83806997      -0.18725828      -0.62295896
O        3.78359001       7.59029998       1.34863000      -0.80947907       1.07531182      -2.09922189
O        4.77322000       3.45909003       3.15922002      -0.88980253      -1.17919766      -2.02677748
Al       3.42388998       7.84377002       3.10047998      -0.13506460       0.66675407       1.90770180
Al       4.81201000       3.45232998       1.25951000       0.99584012       1.51385608      -0.92591627
O        0.50706099       5.05592002       0.72848703       0.16608129      -2.40619076       1.86032563
O        2.15636000       0.76573402       3.22398999      -0.42364906      -0.26898956      -2.90954565
O        3.41844001       4.98262004       1.04147003       2.27338083      -0.97917199       2.06043869
O        4.71586000       0.57700498       3.05569001       1.36557185       1.12339827      -0.99996146
Al       2.18682998       3.74395998       5.02380997      -2.39622444      -0.46250499       0.22846308
Al       0.62909698       7.70904999       6.96452996      -0.49510682      -0.45573500      -1.87112172
O        5.13747002       0.74268404       7.09916003      -1.83129857      -1.22860368       1.78854704
O        3.44013002       5.13010998       4.93757997      -1.44605016      -3.26962564      -2.64189925
O        2.01827002       0.77477999       6.91331003      -0.71872339      -0.10544502       0.65030639
O        0.59199302       4.97090998       5.15102000       1.74076647       0.19688641      -1.28894896
Al       2.14175999       6.42992002       1.03980003      -0.36013276      -1.17110492      -2.13064491
Al       5.10564001       6.30900000       0.97914601      -1.60317748       0.08421351       0.76928042
Al       3.35970002       6.45283998       5.91368000       1.22352539       1.20340607       3.35954972
O        5.03847999       6.25759999       6.99119997      -2.23452609       1.57300457      -0.75032465
O        1.99176000       6.31543996       7.15694996       0.82362508       1.50201546      -1.03324092
Al       3.55156000       1.83617001       6.93185997       0.40257570       1.15492938      -0.50174792
Al       0.63918502       2.06116000       7.03891002       0.88658684       0.86870649      -0.98145260
Al       1.96747001       2.21373998       2.12509998      -0.72635187      -0.43003700       1.20256809
O        0.44832803       2.27187002       1.02621998       0.38011727      -1.46102485       1.05532929
O        3.41712998       2.13121002       0.96713198       1.51661562      -0.79979603      -0.59420285
Al       4.93781000       2.00959002       4.24891000       0.53364668      -0.05026222      -0.95599888
O        3.38572003       1.91135002       5.14348004       0.38175932       2.15360964       0.23933909
O        0.82478003       2.10375998       5.07173002      -1.72455072      -1.40453550      -0.50442650
Al       0.73366799       6.36837997       4.06163000      -2.27231211      -2.19128291      -0.93636787
O        2.03974003       6.45629003       2.77543999       0.75333133       0.36201032       2.61479845
O        4.96355003       5.98398998       2.95423998       0.24955879       2.43464818      -0.20642985
40
Lattice="5.587 0.0 0.0 0.0 8.413 0.0 -0.0830783 0.0 8.06757225" Properties=species:S:1:pos:R:3:forces:R:3 step=0 confid=0 wdir=cand3 energy=-286.64983156 pbc="T T T"
Al       2.08162001       0.79816899       4.83879002      -2.25488410      -1.53262208       6.37045650
Al       0.27512899       4.82836002       6.79751000       0.93124418       3.27488138       0.78788651
O        4.80048997       3.47979002       7.07691004      -0.68551797      -2.26822690       1.48287740
O        3.64355000       7.83424996       5.16998000      -2.54479934       0.28393198      -0.31370286
O        2.05784999       3.30022001       6.69080999      -1.03748254      -0.68482492       4.06987530
O        0.77126301       7.52774998       5.09568000       0.77181081      -1.25457491       0.30879430
Al       3.51306998       4.88598999       3.01086000       0.07592935      -0.29876522       0.83746054
Al       4.72232998       0.78345196       1.23017004       2.02744036       0.13757218       0.24075988
O        0.69693001       7.69860001       0.85493604       0.02970643      -0.70273945      -0.92827175
O        2.65175001       3.32087998       3.29531001      -2.63984124       0.11001870      -1.26748694
O        3.61496998       7.84499000       1.12800997       0.02409550      -2.52421636       0.74394202
O        5.05788003       3.49350002       2.86262997      -0.15665221       1.74210531      -1.00883020
Al       3.60499999       7.87325002       3.40436003      -0.64185548      -1.47766316      -0.41682732
Al       4.86690999       3.54861997       0.99088504      -1.27371937       1.80622835       1.33862621
O        0.41055997       5.03542002       0.59119202       0.79288322      -2.98361037       2.23192058
O        2.00982001       0.67266402       3.25645997       1.58350312      -0.76666536      -6.34290813
O        3.20722002       4.79950999       1.14788000       2.92812583       1.89474472       1.36524515
O        4.73138000       0.78762203       3.14799001      -0.09071789      -1.72843286      -4.19154940
Al       2.31100997       3.53776998       5.03975002      -0.18672952       1.38848954      -1.64493658
Al       0.56389000       7.81437997       6.86031000      -1.32232549      -0.40600936      -0.22641172
O        4.89269000       0.86379401       7.21642999      -0.63076189      -0.38761165       1.36916300
O        3.73327999       4.95865997       4.82684001      -2.55639905      -0.12120779       1.93970764
O        1.68422998       0.81679201       6.69800997       3.24992397       0.10399907       2.32091647
O        0.77651301       4.75204999       5.12107002       1.38523623      -1.30129784      -0.08014415
Al       2.42968999       6.55505003       0.93195199      -3.41786933      -1.69690634      -0.17423190
Al       5.01869000       6.35127001       1.03021002      -0.49914240       1.83639040      -0.64826834
Al       3.15252999       6.34079002       6.02827998       3.07220126      -0.27107660      -2.61382531
O        4.57202002       6.20013997       7.16129999       1.68691654       1.63707715      -0.51121891
O        2.03864999       5.98733002       7.22867003      -2.83438683       2.06720029       0.95065893
Al       3.41389000       1.82937000       7.06876001      -2.13744412       1.31276648      -1.19560801
Al       0.55410403       2.29230004       7.13136002       1.95714011      -3.05200795      -2.31099785
Al       1.94505000       2.11949003       2.21010997       0.47242896      -0.06880733      -0.58076459
O        0.50884102       2.17729004       0.98242296       1.17240026      -0.56544823       0.15828402
O        3.36708999       2.05631000       0.96869204       0.91575237       0.12436039      -1.14165861
Al       4.80096002       2.18254000       4.06079999       1.84884663       2.07959092      -0.76625074
O        3.50591001       2.06529997       5.12452004      -2.36171298      -0.58488506       3.03920518
O        0.65851301       1.95262003       4.94680998       1.04478906       2.08840038       0.86072441
Al       0.57753401       5.92375003       3.92886001       2.26257454       3.49491279       1.50826743
O        2.21318001       6.29847002       3.10606001      -0.25555431      -0.11071183      -1.93769585
O        4.77970999       6.42400998       3.07450999      -0.70515267      -0.59435844      -3.62318229
40
Lattice="5.81131456 0.0 0.0 0.0 8.67014183 0.0 -0.08137919 0.0 7.90257539" Properties=species:S:1:pos:R:3:forces:R:3 step=0 confid=0 wdir=cand4 energy=-290.57296224 pbc="T T T"
Al       2.01117001       0.17595403       4.97038999      -0.78615818       5.57956755       0.24966240
Al       0.24537998       4.87639998       6.91718999       2.09146120      -2.19462530      -2.81656809
O        4.93237002       3.26731000       7.22593997      -0.09734832       1.35021235      -0.49735521
O        3.29905003       7.79358000       5.00071999       2.85625046      -0.66193510      -1.02883900
O        1.67680001       3.52605998       6.76649997       0.56816273      -1.95960915       0.66815821
O        0.68940600       7.75707003       4.95602002      -1.43169813       0.39558119       2.57433397
Al       3.69289001       4.93597998       3.39349998      -1.65581945       0.06307268      -0.76729598
Al       4.88270000       0.59116400       1.16445997       2.39638936       0.45679328      -1.32599196
O        0.57296101       7.73836004       0.97713203      -1.07343208      -1.27037317      -1.34389775
O        2.14820001       3.30842000       3.24577003      -0.09200464       1.87600749      -0.59097890
O        3.68552999       7.98302997       1.06231002      -0.16097472      -2.97206988       1.23649241
O        4.57745003       3.44868001       2.86923997       1.97952945      -0.64324551       1.99269795
Al       3.66200998       8.02444004       2.96355001       0.02393703      -2.44309423       1.94787697
Al       4.90615999       3.57304998       1.14486001       0.94056136      -0.34398561       0.06902068
O        0.54012499       4.91867004       0.79630001      -0.83682433       2.37442783       1.04965952
O        2.45081002       0.56853900       3.27901000      -1.63433169       0.99738116      -2.48211981
O        3.66965003       5.05141000       1.21805998      -0.01119691       0.84817855      -0.76490999
O        5.01993000       0.51190399       2.97562997       0.13249137       1.32799629      -0.39047443
Al       1.79571000       3.57821002       4.92512001       0.90507409      -0.85434246       0.96134773
Al       0.56611802       7.91876003       6.93151001       0.31910425      -0.29329101       0.04127658
O        5.05866003       0.73780202       7.02141998      -0.70235602      -1.42577821       2.26293598
O        3.17545001       5.14966005       5.11139999       0.93012119      -2.15148246      -2.00365668
O        1.83715002       0.57048397       6.92500998       0.43003268       1.04253030      -0.84789792
O        0.65285802       4.96694998       5.09823999      -1.86242898       1.11765281      -1.04252670
Al       2.04570001       6.24443998       1.12146001       0.30607419      -0.58331271      -2.28956865
Al       5.03534003       6.35504004       0.90700497      -1.31136658       0.68309973       2.06271069
Al       3.36355998       6.52930998       6.14125002      -0.17436289      -1.13490841      -2.16801155
O        4.85870002       6.24526997       6.91711001       2.39727231       1.36796696       1.95544704
O        2.00204000       6.50332001       7.12575997      -3.05014138       0.11763015       2.64073451
Al       3.51689002       2.11321000       6.97280997      -0.80785283      -0.49524041      -1.49191429
Al       0.54425902       1.96493002       7.00943003       1.60568311       1.81551684      -0.52938606
Al       2.16833999       1.98062003       2.13976003      -0.14447884       0.26481873       0.50407864
O        0.75614801       2.32103000       1.14416000      -2.00972580      -2.13835011      -1.08275131
O        3.66791000       1.97584998       0.94583001      -0.88137548       0.49434963       0.21577360
Al       4.83824999       2.02350004       3.97263002       0.40292028      -0.35850305       1.88146947
O        3.33556001       2.11274996       5.14134000       1.30706500      -0.16547651       1.08359608
O        0.59461198       1.85035999       5.06762999      -0.98272173       1.35518096      -1.09729539
Al       0.69436100       6.43851998       3.93040000      -0.86925370      -2.93395806      -0.19482722
O        2.14425001       6.25143002       2.85792000      -0.19212062       0.86121577       0.87949286
O        4.85021998       6.36512003       2.97323004       1.17584324       0.63440111       0.47950160
40
Lattice="5.587 0.0 0.0 0.0 8.413 0.0 -0.0830783 0.0 8.06757225" Properties=species:S:1:pos:R:3:forces:R:3 step=0 confid=0 wdir=cand5 energy=-286.36652798 pbc="T T T"
Al       1.86769999       0.72228600       4.62556998      -1.17829529      -1.27430589       1.55228728
Al       0.23410498       4.72603001       7.01971998       0.83082205       0.67252582      -6.78241548
O        4.85795001       3.06375001       7.43562003      -0.32198351       2.97318539      -2.99547928
O        2.94755998       7.56974002       4.86403999       0.25048525       2.04389437      -2.10162243
O        1.73869001       3.46589999       6.91750998       0.61038267      -1.22111073       0.32762316
O        0.38517702       7.65147997       5.23871999       1.72091859       0.30159113      -1.14991537
Al       3.62943997       5.02797998       3.03119004      -2.17755502      -4.21054280       4.80692575
Al       4.75583000       0.70911503       1.14623002       2.48909358      -0.57212958       1.40156549
O        0.79141899       7.49713003       0.86361998      -0.50589547      -0.01151616      -0.22999061
O        2.43369999       3.34932004       3.26090996      -1.50265457       0.69175457      -1.56233812
O        3.75666002       7.59486999       1.30481001      -0.95232999      -0.79602656      -1.89322542
O        4.77469998       3.66772004       2.91568999       2.88647859      -2.07477176      -0.24809673
Al       3.48625002       7.75854003       3.10560000       1.62066608       1.07249107       1.41100957
Al       4.84131998       3.51545997       1.03508001       1.71391773       0.02562772       3.55460388
O        0.69920398       4.78891003       0.53553497      -1.19645607       1.05568582       6.31501071
O        2.14701997       0.49416002       2.90047003      -0.22384891       2.02455814       0.20111455
O        3.75954001       4.90581001       1.30659004      -2.09877585       2.55228281      -4.25966957
O        4.90260001       0.67941503       3.01583002      -1.87635975       0.91347531       0.01892023
Al       2.14419001       3.72822002       4.99253996      -1.26121859      -0.25807066       1.16167686
Al       0.81575198       7.81343998       7.02330997      -2.56017699      -1.18983000      -0.48328177
O        4.92743002       0.64563196       7.22872997      -0.19395229       1.12752838       1.54451444
O        3.56423000       4.82553998       5.04166002      -1.44098921       3.13889515      -0.11712537
O        2.02945001       0.74836201       6.71704000      -0.56294380       0.75237365       1.71373831
O        0.64176803       4.80588999       5.13528000       0.87475943       1.32162310      -0.17215892
Al       2.41961997       6.37513003       0.93257101      -3.11570508      -0.11134768      -0.59371170
Al       5.05172998       6.19910004       1.03693999       1.72401606       1.81882658      -0.56175979
Al       3.26345001       6.45238998       6.05164004       1.25887241      -3.33891136      -0.35270161
O        4.61391997       6.37807004       7.12994997       1.96294870      -1.95773882       1.90103132
O        1.88183001       6.38356003       7.16612996       1.72793624      -0.63945209       0.25628773
Al       3.40297000       1.98058997       7.16691002      -0.27409477       0.07183175      -1.53588538
Al       0.66832601       2.02258001       7.05204997       0.16202462      -0.31294768      -0.97172698
Al       1.89698001       2.40577004       1.89077997       8.91827949       0.45516384       6.89442505
O        0.71306701       1.94448996       1.07997000      -7.46382833      -1.76156484      -5.57660158
O        3.61547001       2.22494001       1.03522998      -2.92396385      -2.48022534      -0.92579880
Al       4.75726998       2.35494004       4.12764999      -1.12059483      -0.78349661      -1.15576132
O        3.33296999       2.45044004       5.44407996       2.45577004      -3.36849125      -2.61198254
O        0.70533102       2.04813997       4.88445999       0.08430647       0.66090598       1.75067849
Al       0.78524500       6.35565999       4.02860997      -1.65453770      -0.56045289       1.75366789
O        2.08139998       6.06833997       2.77185002       0.60542479       0.80413248       0.05954251
O        4.76487998       6.28236998       3.07949003       2.70905711       2.44457963      -0.34337443
40
Lattice="5.62144522 0.0 0.0 0.0 8.58339185 0.0 -0.08456403 0.0 8.21184879" Properties=species:S:1:pos:R:3:forces:R:3 step=0 confid=0 wdir=cand6 energy=-292.19538527 pbc="T T T"
Al       1.99091002       0.58344001       4.84821000       1.08182997      -0.42449495      -1.14018714
Al       0.48443702       5.14676999       6.90298003       1.84060331      -3.54645290       0.58515827
O        4.78142998       3.49589997       7.39230998       0.34470792      -1.83176513      -1.54631750
O        3.46092002       7.79944003       4.91595003      -0.29063521       0.26113681      -0.12361128
O        1.75418999       3.44633998       6.92051003      -0.08035286       0.43239278      -0.97074816
O        0.92850897       7.76028002       5.07142997      -0.88655817       1.13132213       2.46500018
Al       3.39815003       4.75633003       3.29059998       2.02640588       0.10462284      -2.51738480
Al       5.10048998       0.65256404       1.00361997      -1.09447640      -0.67469126       2.55603206
O        0.61471802       7.70328999       0.74235302       0.18099558       0.80845676       0.35042638
O        2.05642000       3.59530002       3.07402996      -0.03915666      -0.90678466       1.46992314
O        3.67201001       7.47317998       1.25984000      -0.10111846       0.13719158      -1.46213963
O        4.76033002       3.50216001       2.96166001      -0.77614336      -1.01107768       0.47878086
Al       3.59306998       7.52600003       3.05391997      -0.97998394       3.60204987       1.21316977
Al       5.04451001       3.42739000       0.97315803      -2.71554428       3.30190894       2.98162319
O        0.64324600       5.05366001       0.72424696       0.40346309      -0.25679374      -0.42190765
O        2.16161999       0.65482302       2.91073998      -0.22860369      -0.90663888       2.59111653
O        3.69005002       4.87840998       1.21482001      -0.47544966       1.17742812      -0.33902713
O        4.72739000       0.59652101       2.90326999       0.74655144      -1.54862732      -1.59431158
Al       1.83752000       3.55181999       4.96800001      -0.73913853       0.87679618      -0.12270661
Al       0.70066102       7.86765001       7.11473002       0.45981701       0.16688697      -1.40945208
O        5.00831998       0.73049197       7.23228001      -0.33153624       0.52410654       1.55906489
O        3.09789999       5.13161996       5.01776004      -0.25903591      -2.57295933      -0.37434121
O        2.05230000       0.87494702       6.87118999      -2.67654457      -1.63549300       0.33299103
O        0.45364697       5.05695998       5.11155003       1.25131957      -2.74133209       1.62179988
Al       2.16872000       6.07499000       0.94171700       2.17886275       0.35276424       1.02468774
Al       5.08946998       6.32926998       1.18467998      -2.21359160      -0.63143303      -0.12185433
Al       3.41914002       6.42538002       6.07510003       0.60776135       1.54504586       0.42292154
O        5.02748999       6.43687996       7.03521001      -2.67295000       1.96068546      -0.02394830
O        2.06014999       6.43449996       7.33030001      -0.38003826      -0.14506775      -1.13896612
Al       3.40159001       2.03051001       7.10481003      -0.75267942       0.94757671       0.17085062
Al       0.46949501       2.14912999       6.93809004       1.53765550       0.52792873      -0.57600054
Al       2.19285002       2.11770002       2.01784997       0.89949829       0.29253216       0.84631516
O        0.66498598       2.28302996       1.25270998      -0.66145381      -2.85138031      -2.87119461
O        3.59308003       1.96190004       0.85690404       0.80953315       0.27709294      -1.45855039