160
Lattice="16.826 0.0 0.0 0.0 16.136 0.0 0.0 0.0 19.41349599" Properties=species:S:1:pos:R:3:forces:R:3 step=0 confid=0 wdir=cand0 energy=-1123.4753035 pbc="T T T"
Al       0.55628001       4.88832004       4.07141993       0.25452215      -0.31980539      -0.25351538
Al       4.88113006       6.91152998       2.97034002       0.65138889       0.62521842      -0.52804819
O        3.41568002       7.25951992       1.58661999      -0.12271264       0.09160777       0.89563316
O        7.71471999       4.97648004       0.00000000      -0.67686696      -1.02062259      -1.54046148
O        3.50632000       6.73651004       4.18219004      -0.30613148      -0.50613840       0.18214635
O        7.65515006       5.03323003       2.96385999      -0.50273708       0.18711743       0.37826038
Al       4.83748005       3.15150005       0.15642793      -0.40783605       0.31910959       3.26299515
Al       0.66462700       1.12005995       1.55868999       0.43749964      -0.47646302      -1.49997417
O        7.67921006       0.83900907       2.81652009      -0.04745803       0.39122198      -0.41914959
O        3.48196992       3.29093994       4.76653005      -0.02530234       0.45125393       0.16819116
O        7.62218002       1.20653003       0.21229493       1.14087983       1.56348896      -0.23173546
O        3.49981002       2.93662001       1.43578004       0.12661860       0.51825116      -0.71435385
Al       7.78201995       3.15150005       0.15642793       0.46688374       0.34501760       3.30876330
Al       3.54186997       1.12005995       1.55868999      -0.17301888      -0.53765397      -1.26425425
O        4.95040993       0.86896701       2.80838001      -0.15047253       0.14619848      -0.39737788
O        0.68380696       3.29521001       4.72847009       0.02009744       0.05253887       0.40612754
O        4.99731998       1.20653003       0.21229493      -1.19134648       1.55929605      -0.28479223
O        0.70669200       2.93662001       1.43578004      -0.11424494       0.50182935      -0.72774912
Al       3.61268993       4.90614999       4.10153997      -0.13355840      -0.72007527      -0.23382114
Al       7.71337004       6.90256998       2.96861008      -0.35782491       0.44374613      -0.62456922
O        0.79082200       7.25951992       1.58661999       0.12585781       0.10822933       0.82050949
O        4.90478001       4.97648004       0.00000000       0.65088674      -1.02976922      -1.50681404
O        0.69067297       6.70027004       4.17077005       0.24260456      -0.13962831       0.10239605
O        4.95162006       5.04834995       2.98134009       0.19555793       0.20607370       0.39531897
Al       6.30938000       1.12904996       4.01486997      -0.00678677      -0.48331826       0.47745236
Al       6.30975000       1.01569004       1.50841000       0.04623448      -0.10726898      -2.84836487
Al       6.30975000       6.03281005       0.05586699       0.02906941      -2.29358762       2.10068640
O        6.30975000       7.05827996       1.54192993      -0.05489065       0.25804510      -0.69928661
O        6.31542995       7.33630001       4.13358000      -0.14038939       0.02047531       0.40124442
Al       2.10325000       7.07312007       0.10056094      -0.01247586      -1.44229952       3.81504157
Al       2.10297994       7.07490004       3.02737007      -0.17237844       0.47994297       0.14200489
Al       2.08298998       2.42352006       4.29168992       0.18520324       0.02429437      -0.18954369
O        2.09935007       1.09953996       3.06941000       0.01600373      -0.33173046      -0.33690129
O        2.10325000       0.91648898       0.17318799      -0.00417524      -1.69075331       0.47593070
Al       2.10325000       4.02546002       1.46929996       0.00511166       1.46748153      -2.59450207
O        2.10325000       5.18573007       0.05028037       0.00604115       1.65548255       0.38563640
O        2.09516006       4.89866999       3.02955992       0.13336689       0.22658753      -0.17986540
Al       6.28803992       3.88722001       3.04116006       0.30992084       1.07069415      -0.55974555
O        6.33091004       2.81432994       4.34431991      -0.07375205      -1.10954475       0.74221265
O        6.30975000       3.01696002       1.46929996      -0.05621195      -0.18575736      -1.23445476
Al       8.98831998       4.89647001       4.08931995       0.09323445      -0.27053636      -0.63093703
Al      13.29619999       6.92969008       3.00428005       0.68992675       0.57026494      -0.62505726
O       11.82870004       7.25951992       1.58661999      -0.09439167       0.21136653       0.86059279
O       16.12769997       4.97648004       0.00000000      -0.64391543      -1.03449859      -1.54373312
O       11.89370006       6.72899002       4.17087003      -0.10741231      -0.29050605       0.32957857
O       16.06519996       5.04052996       2.94574001      -0.41656795       0.35220911       0.32672420
Al      13.25050007       3.15150005       0.15642793      -0.47097839       0.30921447       3.28629201
Al       9.07763003       1.12005995       1.55868999       0.30114781      -0.61792529      -1.23325368
O       16.11590006       0.86496802       2.79719998      -0.20842413       0.06825516      -0.21997343
O       11.90540002       3.30779997       4.73719005       0.10672955       0.09487337       0.45174273
O       16.03520004       1.20653003       0.21229493       1.18743337       1.54830536      -0.25516943
O       11.91279992       2.93662001       1.43578004       0.15649089       0.53427743      -0.77440146
Al      16.19499993       3.15150005       0.15642793       0.39343893       0.35927107       3.28175520
Al      11.95489992       1.12005995       1.55868999      -0.30202085      -0.58565042      -1.27455016
O       13.36629997       0.87766592       2.79010997       0.33746384      -0.07922025       0.21112439
O        9.15055997       3.31761001       4.73776993      -0.45704922      -0.02556126       0.69540337
O       13.41029996       1.20653003       0.21229493      -1.13651036       1.57800662      -0.35427571
O        9.11968998       2.93662001       1.43578004      -0.17396114       0.46114485      -0.74357093
Al      12.03000008       4.90361003       4.07975997      -0.38003494      -0.51512190      -0.16593755
Al      16.13450003       6.91915004       2.94603005      -0.34845585       0.31833495      -0.31249871
O        9.20381998       7.25951992       1.58661999       0.09588069       0.09859059       0.72834862
O       13.31780003       4.97648004       0.00000000       0.67484661      -1.02553423      -1.52840454
O        9.09275997       6.70710993       4.15961991       0.46903634      -0.08244975       0.31754328
O       13.35759992       5.05691994       2.97923994       0.89027305       0.12310741       0.24891037
Al      14.77930000       1.13000005       3.98623001      -0.53758872      -0.15789223       0.90409787
Al      14.72270003       1.01569004       1.50841000      -0.10525351      -0.04634350      -3.26483615
Al      14.72270003       6.03281005       0.05586699      -0.04265224      -2.29688794       2.13633330
O       14.72270003       7.05827996       1.54192993       0.02516711       0.36302651      -0.66168016
O       14.74639995       7.36374993       4.14237994      -0.18643098      -0.04493457       0.35549660
Al      10.51620003       7.07312007       0.10056094       0.00425713      -1.42752629       3.77482106
Al      10.50710002       7.07021995       2.99966003      -0.11242625       0.32829215       0.27224018
Al      10.51370002       2.40981995       4.32570003       0.40404737      -0.20025397      -0.62263670
O       10.53070000       1.09833008       3.07569997      -0.11418808      -0.24245370      -0.23232968
O       10.51620003       0.91648898       0.17318799      -0.01423381      -1.65316262       0.44298117
Al      10.51620003       4.02546002       1.46929996       0.01148377       1.40074351      -2.56277230
O       10.51620003       5.18573007       0.05028037      -0.00333683       1.67076835       0.34865226
O       10.51460004       4.90899993       3.01733000      -0.07301871       0.32430809      -0.16200263
Al      14.72360005       3.88858995       3.04543006      -0.36120377       1.24154130      -0.75354669
O       14.73780002       2.81711001       4.34538998       0.02749024      -1.36697715       0.70714365
O       14.72270003       3.01696002       1.46929996       0.02381280      -0.16281095      -1.17814651
Al       0.58299398      12.97060007       4.09362004      -0.05203324      -0.38843669      -0.53151336
Al       4.88412004      14.96819992       2.94587998       0.62970627       0.66858024      -0.22857463
O        3.41568002      15.32750007       1.58661999      -0.12392331       0.09763656       0.83400119
O        7.71471999      13.04450005       0.00000000      -0.67008334      -1.03435767      -1.54284238
O        3.52084000      14.76659996       4.16959009      -0.52932292      -0.05761415       0.07336358
O        7.64705995      13.11800001       2.96981003      -0.61320791       0.01895991       0.27269516
Al       4.83748005      11.21950005       0.15642793      -0.39309832       0.37617032       3.29694902
Al       0.66462700       9.18805995       1.55868999       0.30037421      -0.56681430      -1.31574768
O        7.68507998       8.93084001       2.81100006      -0.22200842       0.03883613      -0.29930055
O        3.50902999      11.35910001       4.71831003      -0.17625555      -0.05717704       0.40049658
O        7.62218002       9.27453003       0.21229493       1.15035457       1.54892693      -0.25911703
O        3.49981002      11.00460000       1.43578004       0.12121070       0.44964028      -0.70496232
Al       7.78201995      11.21950005       0.15642793       0.45162130       0.36469705       3.30723869
Al       3.54186997       9.18805995       1.55868999      -0.19632269      -0.58408026      -1.22094521
O        4.94171005       8.92624996       2.82730002       0.04001936       0.10266572      -0.55261924
O        0.71277292      11.38650007       4.76904002       0.13970812      -0.05149161       0.35399668
O        4.99731998       9.27453003       0.21229493      -1.19547540       1.53258395      -0.19653251
O        0.70669200      11.00460000       1.43578004      -0.10818851       0.42821448      -0.71174067
Al       3.61516992      12.95359999       4.07023007       0.15659159      -0.24234630      -0.41427829
Al       7.70327007      14.98490004       2.96591995      -0.25151815       0.49999631      -0.29750586
O        0.79082200      15.32750007       1.58661999       0.09898221       0.07377333       0.76811691
O        4.90478001      13.04450005       0.00000000       0.63985198      -1.03561662      -1.53163282
O        0.72037204      14.77580007       4.16918998      -0.22688046      -0.00485706       0.13052535
O        4.97513002      13.11170003       2.96801001       0.13704556       0.00772113       0.41309577
Al       6.31957992       9.16628006       4.00875006      -0.00352297       0.01444542       0.77893859
Al       6.30975000       9.08369004       1.50841000       0.02261958      -0.09227642      -2.87611996
Al       6.30975000      14.10080004       0.05586699       0.03919734      -2.31605910       2.11044522
O        6.30975000      15.12629997       1.54192993      -0.08914070       0.23465241      -0.81226753
O        6.29506999      15.43179995       4.13183997      -0.03207244      -0.15006667       0.42322111
Al       2.10325000      15.14110007       0.10056094       0.01291473      -1.43410085       3.76485766
Al       2.09692999      15.15220002       3.02087005       0.31494180       0.29600539       0.21797551
Al       2.09440003      10.48410008       4.30570996       0.08031290       0.16416371      -0.14374367
O        2.10037006       9.15416999       3.10155991      -0.03200514      -0.29743321      -0.58031761
O        2.10325000       8.98448995       0.17318799       0.00818974      -1.65518206       0.50805216
Al       2.10325000      12.09350004       1.46929996      -0.04377455       1.45095718      -2.63464877
O        2.10325000      13.25370006       0.05028037       0.00151625       1.66292181       0.36203548
O        2.09540000      12.97320007       3.01658995       0.07671870       0.13006739      -0.16722414
Al       6.30268998      11.93339994       3.06394005       0.18839944       1.11260358      -0.50900379
O        6.32651004      10.85549997       4.37962995      -0.01328182      -1.10621735       0.34834115
O        6.30975000      11.08500004       1.46929996      -0.03156386      -0.22457068      -1.07571798
Al       8.98137992      12.97589994       4.07164998       0.16068858      -0.09728729      -0.25063984
Al      13.30650003      14.98830005       3.00030999       0.34767432       0.49913171      -0.61522537
O       11.82870004      15.32750007       1.58661999      -0.08951507       0.08796012       0.92317923
O       16.12769997      13.04450005       0.00000000      -0.65311919      -1.02637369      -1.53765182
O       11.90609998      14.76420006       4.18356005      -0.25344978       0.04211922       0.09380307
O       16.08219994      13.10589995       2.94999001      -0.39165262       0.31114778       0.51680400
Al      13.25050007      11.21950005       0.15642793      -0.44545378       0.35817036       3.28197588
Al       9.07763003       9.18805995       1.55868999       0.29160286      -0.55110979      -1.26803787
O       16.10359992       8.92865003       2.81741991       0.03313479       0.20734696      -0.56088055
O       11.89940003      11.37180001       4.72424998       0.10098985       0.00314548       0.44127236
O       16.03520004       9.27453003       0.21229493       1.17685084       1.54695017      -0.21511522
O       11.91279992      11.00460000       1.43578004       0.16496230       0.51053499      -0.71860557
Al      16.19499993      11.21950005       0.15642793       0.41255951       0.36822636       3.30105134
Al      11.95489992       9.18805995       1.55868999      -0.21399773      -0.57619151      -1.17820862
O       13.36689998       8.93612003       2.83278006       0.00012407       0.09369334      -0.53149808
O        9.13680993      11.40979997       4.74299992      -0.02635747      -0.31048287       0.52710222
O       13.41029996       9.27453003       0.21229493      -1.16503405       1.54444454      -0.19815220
O        9.11968998      11.00460000       1.43578004      -0.15768906       0.49447379      -0.74629645
Al      12.00729996      12.95679992       4.06007002      -0.00365301      -0.35032697      -0.09778934
Al      16.13860002      14.98209996       2.92772002      -0.16707360       0.16951026      -0.16719653
O        9.20381998      15.32750007       1.58661999       0.09002684       0.07852492       0.77636106
O       13.31780003      13.04450005       0.00000000       0.67211439      -1.04216496      -1.51605333
O        9.09479002      14.79079993       4.18493006       0.32936555      -0.25481627      -0.03355623
O       13.36759994      13.11510005       2.99139007       0.61730496       0.26034803       0.12408821
Al      14.76660007       9.20864997       4.00914997      -0.34668058      -0.39673974       0.76391191
Al      14.72270003       9.08369004       1.50841000      -0.09290124      -0.13932348      -2.86216477
Al      14.72270003      14.10080004       0.05586699      -0.05077800      -2.29204008       2.08857027
O       14.72270003      15.12629997       1.54192993       0.08005096       0.25929035      -0.69509337
O       14.74169995      15.42839993       4.12897997       0.01713372       0.09140729       0.31804041
Al      10.51620003      15.14110007       0.10056094       0.01444627      -1.40661616       3.84021359
Al      10.50339998      15.13310000       3.01343992       0.03273154       0.48036136       0.18938422
Al      10.50670007      10.48749993       4.30844998      -0.09548707      -0.00721436      -0.31469727
O       10.50849994       9.17956999       3.07851008       0.01242013      -0.43872280      -0.44666960
O       10.51620003       8.98448995       0.17318799       0.00506262      -1.65525834       0.46433611
Al      10.51620003      12.09350004       1.46929996      -0.06379733       1.36744857      -2.85139540
O       10.51620003      13.25370006       0.05028037       0.00712039       1.62794690       0.33075202
O       10.49909993      12.99159995       2.99613997       0.01997158       0.30368073       0.00559452
Al      14.71689994      11.96160002       3.04884004       0.07563879       1.04042461      -0.58767150
O       14.73870004      10.89260002       4.36027003       0.04443357      -1.16028595       0.58772064
O       14.72270003      11.08500004       1.46929996      -0.01164878      -0.16529533      -1.11089040
160
Lattice="16.826 0.0 0.0 0.0 16.136 0.0 0.0 0.0 19.41349599" Properties=species:S:1:pos:R:3:forces:R:3 step=0 confid=0 wdir=cand1 energy=-1123.00015725 pbc="T T T"
Al       0.60978602       4.85323004       4.09838003       0.12180386       1.02286433      -0.51020638
Al       4.91916001       6.88674992       2.98227000       0.05446047       0.58719905      -0.27871183
O        3.41568002       7.25951992       1.58661999      -0.05371727       0.48728446       1.17612713
O        7.71471999       4.97648004       0.00000000      -0.64777700      -1.01585608      -1.42221644
O        3.49446995       6.71489006       4.17255007       0.44811532      -0.64331022       0.20308530
O        7.58897997       5.01555998       3.15576006       0.27510345       0.55037027      -0.47112782
Al       4.83748005       3.15150005       0.15642793      -0.35291815       0.28898079       3.26143065
Al       0.66462700       1.12005995       1.55868999      -0.21670191      -0.78084778      -1.50134038
O        7.67065000       0.89764100       2.76574002       0.05996303      -0.45796164       0.25893688
O        3.46100001       3.34390007       4.89486996       0.66210530      -0.11721441       0.51296944
O        7.62218002       1.20653003       0.21229493       1.18410979       1.60910548      -0.46937294
O        3.49981002       2.93662001       1.43578004       0.15805094       0.37853423      -0.61987756
Al       7.78201995       3.15150005       0.15642793       0.34644082       0.27204456       3.25940222
Al       3.54186997       1.12005995       1.55868999       0.18622393      -0.67958109      -1.46761435
O        4.96665998       0.87358594       2.77919998      -0.29249475      -0.29591766      -0.00493980
O        0.71158601       3.35844006       4.88710009      -0.02386622      -0.64775666       0.44153759
O        4.99731998       1.20653003       0.21229493      -1.19142524       1.59207083      -0.39639465
O        0.70669200       2.93662001       1.43578004      -0.12976097       0.39516851      -0.58806063
Al       3.64456006       4.83545995       4.09542006      -0.53425183       1.01343756      -0.17668259
Al       7.74206005       6.89560003       2.98851998      -0.48154707       0.36121879      -0.59796090
O        0.79082200       7.25951992       1.58661999       0.13885733       0.47067037       1.00335201
O        4.90478001       4.97648004       0.00000000       0.65048187      -1.01646688      -1.43172767
O        0.74146192       6.72184000       4.13450991      -0.56478551      -0.73298813       0.80958372
O        5.06400007       5.02664993       3.13063997      -0.68533063       0.54937447      -0.26069117
Al       6.32304002       1.04208999       3.98523002       0.01753421      -0.00202470       1.06779107
Al       6.30975000       1.01569004       1.50841000       0.01965295       0.12342701      -3.35480619
Al       6.30975000       6.03281005       0.05586699       0.00164619      -2.28356035       2.09032840
O        6.30975000       7.05827996       1.54192993       0.02561522      -0.05258742      -0.37680349
O        6.32299997       7.37064000       4.17330001       0.07924716      -0.47896891      -0.12032073
Al       2.10325000       7.07312007       0.10056094      -0.05278086      -1.53537088       4.29467693
Al       2.11677995       7.27215005       3.15946008       0.22202476      -0.28626621      -0.95424279
Al       2.09815004       2.48953001       4.40377005      -0.40380656      -0.76145360      -0.45085982
O        2.11883003       1.08905995       3.22198998      -0.11065365       0.22903789      -0.70553796
O        2.10325000       0.91648898       0.17318799       0.01860435      -1.47741880       0.67749249
Al       2.10325000       4.02546002       1.46929996       0.03107571       1.56312134      -2.61465987
O        2.10325000       5.18573007       0.05028037       0.00031569       1.53890100       0.32087665
O        2.12923002       4.81833998       3.04426991      -0.14891578      -0.35698670       0.15181033
Al       6.31283993       3.81892003       3.10781999       0.25644911      -0.18228072       0.11645775
O        6.29801992       2.67756992       4.41098003       0.01310394       0.28709968      -0.00555534
O        6.30975000       3.01696002       1.46929996      -0.00454512       0.10086786      -0.83509426
Al       9.00420995       4.84558997       4.11258993       0.55247738       0.31649943       0.04763246
Al      13.30990006       6.87920005       2.95727007       0.35289925       0.59415112      -0.35025384
O       11.82870004       7.25951992       1.58661999      -0.09029416       0.45710742       1.07737065
O       16.12769997       4.97648004       0.00000000      -0.66042092      -1.03929501      -1.43095050
O       11.90010000       6.72212996       4.14266008       0.74232648      -0.89820039       0.69637699
O       15.99389995       5.01317008       3.13780996       0.70905811       0.75325365      -0.20091373
Al      13.25050007       3.15150005       0.15642793      -0.35700265       0.30419781       3.22990443
Al       9.07763003       1.12005995       1.55868999      -0.15596342      -0.65958804      -1.62201812
O       16.06470006       0.87627500       2.78086993       0.17867075      -0.12698680       0.20398987
O       11.91830001       3.36320002       4.94040004       0.05130720      -0.21161638       0.05867792
O       16.03520004       1.20653003       0.21229493       1.17571348       1.63487566      -0.41063988
O       11.91279992       2.93662001       1.43578004       0.12679845       0.39346639      -0.57354783
Al      16.19499993       3.15150005       0.15642793       0.38892734       0.28548263       3.22899817
Al      11.95489992       1.12005995       1.55868999       0.09542397      -0.71313311      -1.61283012
O       13.36539995       0.88237893       2.78352996      -0.40013900      -0.15332583      -0.19402681
O        9.14735007       3.31924007       4.91272998      -0.23439350       0.25892969       0.05971981
O       13.41029996       1.20653003       0.21229493      -1.19205689       1.61610639      -0.36478427
O        9.11968998       2.93662001       1.43578004      -0.08083307       0.43460844      -0.62449789
Al      12.05069993       4.83746001       4.08379991      -0.52008623       0.91055826       0.04221521
Al      16.13950004       6.89120007       2.99486994      -0.40444513       0.50184625      -0.56176941
O        9.20381998       7.25951992       1.58661999       0.17987615       0.45015930       1.07190855
O       13.31780003       4.97648004       0.00000000       0.64277339      -1.03436624      -1.43652286
O        9.14298003       6.71022999       4.14155992      -0.19894393      -0.50709077       0.79329917
O       13.45010001       5.01018008       3.09673993      -0.48219320       0.65009260      -0.30075996
Al      14.68449996       1.08371006       3.99526991       0.38663593      -0.25730027       1.08907197
Al      14.72270003       1.01569004       1.50841000       0.08865826      -0.05394154      -3.29182171
Al      14.72270003       6.03281005       0.05586699       0.03699633      -2.27132292       2.08575671
O       14.72270003       7.05827996       1.54192993      -0.06410777      -0.08201479      -0.42497444
O       14.70679996       7.36108007       4.17623009       0.08652520      -0.61471144      -0.15709148
Al      10.51620003       7.07312007       0.10056094      -0.04891575      -1.53910075       4.27393869
Al      10.53600002       7.26114998       3.17118991      -0.38825671       0.02643778      -1.16188254
Al      10.54660007       2.50497007       4.39909004      -0.04531734      -0.55810969      -0.11656253
O       10.52199995       1.10981004       3.22831995       0.09075280      -0.03025928      -0.73330243
O       10.51620003       0.91648898       0.17318799       0.00746594      -1.47879391       0.70539489
Al      10.51620003       4.02546002       1.46929996      -0.06127077       1.57618064      -2.60478138
O       10.51620003       5.18573007       0.05028037       0.01439752       1.54864503       0.33979453
O       10.52030002       4.82552001       3.04764999       0.05943431      -0.59083027       0.20085645
Al      14.72460002       3.81811000       3.09831009       0.13261308       0.00380408       0.34355370
O       14.70329999       2.71427997       4.44390998      -0.00216868       0.14415166      -0.31006091
O       14.72270003       3.01696002       1.46929996      -0.00231033      -0.00730358      -0.84699818
Al       0.59149195      12.89660005       4.10282009       0.08758161       0.63374630       0.11851468
Al       4.90547004      14.94760006       2.98023003       0.22900741       0.63435300      -0.35744413
O        3.41568002      15.32750007       1.58661999      -0.11345571       0.29730088       1.05008157
O        7.71471999      13.04450005       0.00000000      -0.66799693      -0.97250516      -1.41251678
O        3.49737008      14.78259994       4.15608005       0.09409415      -0.79123694       0.20566912
O        7.58943006      13.07390000       3.12987003       0.44114708       0.83259145      -0.50451279
Al       4.83748005      11.21950005       0.15642793      -0.35316232       0.22528454       3.25362384
Al       0.66462700       9.18805995       1.55868999      -0.22520153      -0.79938092      -1.50493533
O        7.67391004       8.94920003       2.76952002       0.03746457      -0.16755748       0.26934000
O        3.45284007      11.41600007       4.89841991       0.48118695      -0.04896198       0.33817346
O        7.62218002       9.27453003       0.21229493       1.17020974       1.63813468      -0.44349977
O        3.49981002      11.00460000       1.43578004       0.13937043       0.47740866      -0.61554692
Al       7.78201995      11.21950005       0.15642793       0.37458988       0.22758563       3.27010956
Al       3.54186997       9.18805995       1.55868999       0.22150791      -0.72960744      -1.54378662
O        4.96154992       8.96272006       2.78987002      -0.20922741      -0.37505930      -0.12619460
O        0.70201992      11.38689992       4.91298993      -0.47116528       0.11111664       0.28139023
O        4.99731998       9.27453003       0.21229493      -1.18706915       1.62487417      -0.39367719
O        0.70669200      11.00460000       1.43578004      -0.14702145       0.43433032      -0.62990841
Al       3.62280000      12.90689999       4.07670991      -0.53678443       0.62562010       0.27262453
Al       7.71874999      14.93270008       2.95169995      -0.01755466       0.60562190      -0.24058790
O        0.79082200      15.32750007       1.58661999       0.19296001       0.39476747       1.10277811
O        4.90478001      13.04450005       0.00000000       0.65753939      -0.98535942      -1.40131761
O        0.73932906      14.76350008       4.15481002      -0.39101682      -0.51801339       0.44497939
O        5.05694005      13.08719994       3.14932993      -0.76569296       0.83529016      -0.59443555
Al       6.32765000       9.14236005       3.99110008      -0.12214177       0.22507268       1.06267468
Al       6.30975000       9.08369004       1.50841000      -0.04253213      -0.00534009      -3.27332990
Al       6.30975000      14.10080004       0.05586699      -0.00324124      -2.30888053       1.98743717
O        6.30975000      15.12629997       1.54192993       0.04308271      -0.18845816      -0.49369818
O        6.31892993      15.40130000       4.15974007       0.13746190      -0.24990767      -0.14445133
Al       2.10325000      15.14110007       0.10056094      -0.04809282      -1.51181565       4.19165934
Al       2.10827004      15.30010001       3.12867998       0.01868531       0.09087599      -0.59392061
Al       2.08101999      10.55619992       4.41619993       0.15992081      -0.90492438      -0.53321600
O        2.09048008       9.16555007       3.21313995       0.07760050       0.32938066      -0.56918011
O        2.10325000       8.98448995       0.17318799       0.02480837      -1.44031042       0.67029894
Al       2.10325000      12.09350004       1.46929996      -0.06578520       1.34355247      -2.77714920
O        2.10325000      13.25370006       0.05028037       0.02064970       1.56365200       0.38232059
O        2.08300008      12.84929995       3.05660000       0.34632397      -0.09282049       0.00898931
Al       6.30736003      11.90420007       3.09643009       0.21640633      -0.50662259       0.07374025
O        6.27966999      10.79070005       4.40947005       0.12031362      -0.27553305       0.02526428
O        6.30975000      11.08500004       1.46929996      -0.00105810       0.12129461      -0.88698519
Al       8.98475000      12.92200005       4.12012994       0.64382015       0.23403164       0.10025668
Al      13.31139993      14.95749998       2.95075005       0.24008674       0.45932313      -0.32821142