80
Lattice="11.174 0.0 0.0 0.0 8.413 0.0 0.0 0.0 21.437923" Properties=species:S:1:pos:R:3:forces:R:3 step=0 confid=0 wdir=cand0 energy=-574.34918421 pbc="T T T"
Al       2.08976997       0.71217997       4.06953991      -0.44203726      -2.49617011       0.45894499
Al       0.46931504       4.89905000       6.07742007       1.02091867      -2.53192220      -1.02469238
O        5.16980999       3.25895004       6.42529003      -0.88053113       0.46926876       0.73484586
O        3.35791997       7.73213002       4.17460996       0.53799879       0.30352127      -1.13852745
O        2.19025004       3.32401004       6.17760999      -0.61576513      -1.29814593       0.01072931
O        0.82355095       7.69314998       4.22269008      -0.74153397       0.04129655       0.68994231
Al       3.39080997       4.77210002       2.27935008       0.98608919       0.21612376      -0.55083978
Al       5.35782998       0.71095403       0.48795307       0.89397615       0.70393626      -0.91090698
O        0.66384801       7.58711001       0.01027691      -2.05352424       1.02065590       0.28514542
O        2.44447005       3.28219002       2.33380004      -1.50630691      -1.43100053      -1.14752058
O        3.32589998       7.11683004       0.39213005      -1.07207729       0.12286271      -0.27429662
O        4.85339997       3.45488998       2.12622992       0.92038307       1.71824341      -0.77568705
Al       3.53713004       7.78886999       2.26417996      -1.13464791      -1.24466787       0.16386575
Al       5.08382998       3.52928000       0.32482098       1.89517202      -3.01998317       0.08663494
O        0.40610305       5.11942996      21.22277093       1.73897255      -0.18363076      -1.42912586
O        2.14008001       0.65296397       2.27166994       0.62966702      -0.67730468      -1.22699875
O        3.62585003       4.55318997       0.14558000       0.03507273       1.75976310       0.41086335
O        4.74826995       0.64742797       2.20609991       1.06788454       0.56948857      -0.54623926
Al       2.12942996       3.57940003       4.12588992      -1.35738921      -1.21317722       1.40071569
Al       0.84631396       7.50314002       6.09877010      -1.26073688       2.41830093      -1.61262509
O        5.06431000       0.69872598       6.50655005      -0.01213068       1.31276373      -0.25045353
O        3.35785002       4.83422001       4.08921993       0.68050596       0.33477760      -0.37927728
O        2.07217997       0.64039899       6.35323996      -0.18946352       0.39656225      -0.50268487
O        0.53588996       4.55641997       4.22599002       0.75486884       1.32994369       1.20788012
Al       1.75553999       6.09238004       0.27971409       2.00035813       2.40358056       1.40622038
Al       4.78248005       6.03832996       0.22979310      -0.13088168       2.85106299       0.24881542
Al       3.52976994       6.22694000       5.08675007      -0.84917313       0.39917952       2.29068402
O        4.87905994       6.20401996       6.36521990       0.44112647       0.49628271      -0.25251157
O        1.91482000       6.16105998       5.96320010       1.17027466      -1.43555188       1.53343074
Al       3.74543999       1.95338999       6.14042998      -0.58570975       1.22353062       1.01199650
Al       0.80345295       1.98379003       6.32829007      -0.74624601       1.34904917      -0.56299202
Al       2.41931000       1.88595003       1.01805009       1.43715282       1.81869184       0.26675590
O        0.77731998       2.18283000       0.24115091       5.14066686       0.57467383      -0.72042185
O        4.00051995       1.79295004      21.33550011      -1.46813929       0.74117696       1.33324222
Al       4.77906002       2.13406000       3.18769996       2.77014224      -0.63081672      -0.13252666
O        3.50449000       2.14298998       4.34550001      -0.71673876      -1.55349134       0.93607470
O        0.86186202       2.01142000       4.33086991       0.31690279       0.39235838      -0.01754147
Al       0.49083896       6.16054999       3.33609004       1.30576073       0.16077420      -0.08513911
O        1.80492996       5.87337997       2.11615003       1.30965985       0.29723438      -0.61988782
O        4.69994005       6.35205999       2.23219994      -0.28879509      -1.98310041       0.12224464
Al       7.84846999       0.85975997       4.03015995      -1.96115670      -0.53124334      -0.16458690
Al       6.33333995       5.00182001       6.36100006      -0.95130242      -1.64063530      -2.54324534
O       10.67899996       3.42910002       6.65434009       0.69701145      -0.83822163      -0.10375840
O        8.83763002       7.89527996       4.12724008       2.43095965      -1.83960183      -0.45621936
O        7.75365000       3.42986997       6.21557998      -0.41028947       0.99374381       0.24077733
O        6.43327004       7.73077999       4.32764007      -1.44255957       0.71809114       0.82111789
Al       9.27415004       4.87442002       2.31933995       0.53769328       2.02142157      -0.27736393
Al      11.02460004       0.84044297       0.50359396      -3.44676046      -2.46263485      -0.50204400
O        5.84580995       7.51758001      21.29840007       0.93163302       0.15308229      -0.03043110
O        8.09162998       3.66732000       2.37695008      -2.29903280      -1.09915793      -0.21567645
O        8.99841997       7.57476999       0.15327708      -0.05112190       0.14389902       0.42314001
O       10.66699997       3.82881999       2.05393010       0.88928816      -2.79309471       0.97316204
Al       9.03284002       7.95741998       2.14513003      -1.00162862      -0.13911887       0.61355527
Al      10.93700002       3.57202999       0.23672591      -4.59076982      -0.00463190       1.71627867
O        6.27707004       5.07465001       0.01057704      -1.43516708      -1.63560636      -0.52981986
O        7.84664003       0.95542403       2.08701010       0.08306327      -1.08648819       1.72771088
O        9.25156995       4.99533998       0.30811891      -1.67721652       0.57629428       0.31462257
O       10.33840001       0.86702199       2.12944004       1.41408066      -0.52403467       0.58762431
Al       7.72094001       3.62971002       4.17369992       0.58929419       1.88733762       0.52249258
Al       6.02514003       7.66948001       6.18271007       0.34884595       0.03668595      -2.45782258
O       10.52970001       0.87437100       6.44658989       1.45627619      -0.22679424       0.66563053
O        8.91615005       5.16679002       4.23018006       0.63799797      -0.54774282      -0.88593009
O        7.73119003       0.98847997       6.23219994       0.49606721      -1.05412695      -0.02139002
O        6.41009003       4.91274998       4.53853007      -0.59221613       0.43484216      -1.99044786
Al       7.49734995       6.43701000       0.24049791      -0.25084920      -0.21734903      -0.87994473
Al      10.35260004       6.41447999       0.27007796       0.14315724      -0.20493082      -0.49875094
Al       8.83891000       6.52941999       5.37949991       1.85514774       0.51073362      -1.46523700
O       10.67060001       6.28388003       6.32566993      -2.62161950       1.99100882      -0.07741391
O        7.42167996       6.52209000       6.39770007      -0.20771371      -0.87597477       2.32099404
Al       9.25936996       2.15154996       6.33233991      -0.28738175       0.26569163      -1.25511345
Al       6.40044999       2.09368997       6.05282005       0.21571597       0.12782312       0.50952049
Al       8.01788996       2.44586000       1.10080991       0.94700265      -1.79967587      -1.35429723
O        6.52353998       2.09462003       0.19219398      -1.59485438       1.48127545       0.01279104
O        9.51449998       2.15267999       0.00607701       1.11002925       0.84613771       0.31458785
Al      10.60490002       2.20155002       3.30148002      -0.55277196       1.25499505      -1.47515649
O        9.12087997       2.22255004       4.31642011       0.48384201       0.53988890       0.75113604
O        6.56416004       2.16291996       4.11428000      -2.33186209      -0.01804665       0.63417988
Al       6.20325996       6.33954001       3.26332995       1.17541436      -0.23190849       0.87421322
O        7.37478000       6.56097000       1.93255008       1.71396995      -0.05063798       2.59409043
O       10.36020004       6.48940002       2.16241993      -1.45194238       0.11256419       0.12888828
80
Lattice="11.174 0.0 0.0 0.0 8.413 0.0 0.0 0.0 21.437923" Properties=species:S:1:pos:R:3:forces:R:3 step=0 confid=0 wdir=cand1 energy=-579.1593189 pbc="T T T"
Al       2.23471005       0.57476901       4.10471997      -1.60326426       1.01030308       0.96833739
Al       0.25942899       4.93778000       6.11680003       0.74271867       1.17513757      -0.96734415
O        5.09651995       3.42283999       6.68841009       3.32818640       2.10668751       0.54534736
O        3.31821003       7.53073996       3.97052008      -0.85882318       0.64870841       1.79855530
O        2.14835000       3.21054996       6.16588001       1.75479314       1.39916053       0.84202493
O        0.53997696       7.80026001       4.26659001       1.50096037       0.32804020       0.39649687
Al       3.52712003       4.82331996       2.24489998      -0.22381570      -0.10760228       0.00443147
Al       5.23706999       0.52383301       0.35448099       0.74651327       3.38910360      -0.84514154
O        0.60464402       7.52479996      21.27848702      -0.57703295      -0.91726285       0.22036167
O        2.30795003       3.46396004       2.15746005       0.31367907       0.37429039      -0.17374464
O        3.73650001       7.84533998       0.15424500       0.30613518      -0.14322348       1.56613466
O        4.91516001       3.49754002       2.10033999       0.02179336       0.96441788      -0.06232814
Al       3.65521005       7.92821997       2.15709003       0.01137456      -0.44042135       0.60373850
Al       5.54306003       3.44321997       0.36110895      -0.71046511      -2.26935597       0.48552473
O        0.49133397       4.89312001      21.36827805      -0.53938421       0.66352031      -0.02085003
O        2.40344002       0.82343298       2.27496002       0.84112765      -1.02075900      -0.17531782
O        3.36608995       5.35133002       0.18928893       0.41292858      -2.36137553      -0.34881028
O        5.21009997       0.69103204       2.12950007      -2.10701145      -0.31366463       1.09552027
Al       2.03969995       3.63202999       4.02492009      -0.82855141      -0.78677433       0.07344611
Al       0.37723703       7.71429000       6.05260010       0.43413124       0.50766712      -0.00648229
O        5.09795995       0.93353298       6.44008992       0.18149698       0.42975780       0.53617936
O        3.33941002       4.83759001       4.15874997      -0.25297172       0.70746361       0.53926740
O        1.89147002       0.70065601       6.08533002       0.73694613      -2.20746653      -0.57316055
O        0.58659801       4.75812998       4.36767990       1.20428320       2.04317685      -1.03368535
Al       1.84251002       6.12047996       0.27863597      -2.03449579       0.82305457       0.16701207
Al       4.78360002       6.31586003       0.21788905       2.07668997       0.38584589      -0.33414687
Al       3.19010001       6.28918997       5.33694006       0.29890090      -0.16351270      -0.24229766
O        4.75624003       6.38631999       6.30205006      -0.19797641      -0.32856553      -0.20549305
O        1.64590998       6.23601998       6.42323992      -0.23188699       0.18579214      -0.67134906
Al       3.85630998       2.45889998       6.15436999      -4.19982372      -3.06070366      -1.63624166
Al       0.82737201       2.06467000       6.15271006      -1.48908281       0.11183317      -0.72204600
Al       2.58240001       2.04922996       0.94637390       0.68570527       0.53491816       1.12770932
O        0.98545003       1.91502999       0.23696108       0.60106186       0.79056372      -0.64522723
O        4.11251997       2.10090000      21.37783293      -0.39752491       0.50403210       0.55354929
Al       5.03606995       2.13527997       3.28933007      -0.04367218      -0.67851245      -2.16926344
O        3.55675001       2.02103000       4.36618010       1.33487662       0.54610031       0.05174759
O        0.88897305       2.27107000       4.13793010      -0.93836131      -2.40422251       0.86462961
Al       0.77858398       6.36415998       3.34073007      -2.44282442      -1.56643695      -0.98347809
O        1.98645003       6.21875003       2.06657998       0.32229369       0.33054406       0.19320985
O        4.63230003       6.31293003       2.25947991       1.93369397      -0.19375105      -1.02897026
Al       7.75877998       0.59670204       4.22008001      -1.02577140       0.82254132      -0.00396954
Al       5.98605002       4.94665000       6.20541004      -0.37408209       2.11169349      -1.21888583
O       10.63809999       3.42392998       6.45996008       0.38267351      -1.41393953       0.76401056
O        8.81838001       7.57189998       4.19599000       0.01246919       1.23971492       0.18590517
O        7.85241006       3.26075000       6.24995998      -1.75185885       1.51440117       0.40143963
O        6.19553001       7.86583001       4.25995991       0.67072911      -0.27706408       1.29107601
Al       9.04565000       4.85121999       2.25800991       0.91329638       0.75659560      -0.19301640
Al      10.83800005       0.72982699       0.30676103      -0.09707885      -2.90040016       1.28335589
O        6.23121004       7.50557003       0.02268132      -0.01114425      -0.55424324      -0.68705374
O        7.90672005       3.48053996       2.13829990      -0.14632714       0.56891838       1.20029012
O        9.16762003       7.74578003       0.25467995       0.10276341      -0.55569643       0.45929461
O       10.53689998       3.58445002       2.15797006      -0.92520821      -0.59287399       0.64815341
Al       9.10733004       7.76813001       2.41119009       0.87874616       0.34034763      -1.13708051
Al      11.01850005       3.26528999       0.51511599       0.22687174       1.73447327      -1.03495792
O        6.10284994       5.00799002      21.22426001      -0.62453117       0.80501196       0.64657927
O        8.02369999       0.88159297       2.45928993       0.68974668      -1.87630423      -1.29328429
O        8.96139000       5.14098996       0.22182505       0.43113036       0.62408975      -0.02951503
O       10.63159996       0.64578104       2.24053993      -0.92813737      -0.90863107      -2.03108797
Al       7.75387001       3.54066001       4.20541990       0.03434847       0.85977231      -1.28533642
Al       6.05598999       7.75796003       6.09447994      -0.54529361      -0.09954400      -0.60505561
O       10.57570001       0.83010196       6.52349994       0.04678268       1.10174941      -0.13842238
O        8.82306001       4.98270997       4.17750001      -0.43619873      -1.20125048      -0.18179723
O        7.71980004       0.78045702       6.13840003      -1.02211654      -0.32674584       0.28376222
O        6.12622003       4.86269002       4.38249993       1.22672223      -0.74775646       0.78575817
Al       7.60762001       6.37578002       0.29007311      -0.53910954      -0.23705221      -0.13539681
Al      10.35749995       6.31007003       0.13346994       0.49908291      -0.16531908       1.09831927
Al       8.76036996       6.29370002       5.37847989      -0.84782306      -0.24463273      -0.32136289
O       10.23049996       6.31425003       6.24454990       2.01773272       0.20086230       1.09394307
O        7.25586998       6.32256998       6.47743992      -0.03052750      -0.31299558      -0.33376888
Al       9.30656000       2.18371000       6.14914000       0.64773193      -1.24431316       0.53980437
Al       6.45027005       2.12764997       6.29823989       0.66120085      -1.12534621      -0.82727783
Al       8.11570000       2.04336004       1.12096991      -0.34281515      -0.02033134      -1.17765503
O        6.58127995       1.97690003       0.14813390       0.85054311       0.01156269       0.23448703
O        9.74598995       2.08230996      21.34195314      -1.67521158       0.53307044       1.24126431
Al      10.51130001       2.05487996       3.19571002       0.81843136       1.64230552       0.58709344
O        9.08753999       2.14223004       4.36598008       1.36961377      -0.08237301      -0.36588583
O        6.61339000       2.17369003       4.13145992      -2.03280801      -0.29813238       2.10795570
Al       6.17435002       6.33019998       3.38806007       0.09203795       0.08368845      -2.06470725
O        7.60829000       6.32621996       2.08975008      -0.38771561       0.14182795       1.47430918
O       10.26569996       6.35193001       2.32552007       1.05778258      -0.90418957      -1.04912966
80
Lattice="11.174 0.0 0.0 0.0 8.413 0.0 0.0 0.0 21.437923" Properties=species:S:1:pos:R:3:forces:R:3 step=0 confid=0 wdir=cand2 energy=-573.16441509 pbc="T T T"
Al       2.16644004       0.56541199       4.03072998      -2.45082822       3.26685800      -0.26010029
Al       0.60406901       4.82712003       6.12758995      -1.21277490       0.18043435       0.18283582
O        4.90178004       3.27054004       6.85924997      -0.10696191      -0.37945022      -0.35489133
O        3.32135998       7.74214999       3.99862005       2.09576143      -1.15556012       0.30136556
O        1.93628000       3.52026000       6.33675998      -0.38466061       0.98709531      -1.01596621
O        0.86355600       7.62895997       4.18373008      -0.64852088       0.68118639       1.27268086
Al       3.63487002       4.81753998       2.44039990       1.02925547      -0.62514737       0.32039314
Al       5.52490999       0.80833997       0.54221095      -0.53850829       4.06873348       0.72642218
O        0.44945504       7.44638996      21.39840005       1.72597518       1.65388005      -0.70594369
O        2.51390998       3.33755000       2.14244000      -0.39906888       3.06580457       2.62813748
O        3.43220003       7.45471000       0.49040407      -0.79611740      -1.26059931      -3.35084417
O        5.07389998       3.59793000       2.29685993      -1.05275729       1.27638568      -1.57955716
Al       3.53916002       7.82192996       2.14796991       0.26194851       1.20055641       2.21026366
Al       5.26377998       3.70805003       0.40505498       0.96326360      -2.29125057       0.75377600
O        0.68796396       4.95086003      21.33620006      -0.26004493       0.57238564       0.20767572
O        2.39805996       0.81218496       2.17499991      -0.22164762      -1.03627111       0.76949594
O        3.63386000       4.87317001       0.18896800       0.44515387       0.58644322       0.42575093
O        4.96633000       0.59102503       2.27047006       0.26401597       0.14332944      -1.20522086
Al       2.02733000       3.59760997       4.08186994       1.09424450      -0.96193155      -0.12340285
Al       0.40160797       7.44390998       6.01180995      -1.06199742       3.39177127      -0.89490942
O        5.22513995       0.88910098       6.64170994       0.23592596      -2.32912205      -0.16465704
O        3.44928999       5.00428998       4.38520004      -1.29104748      -0.84090847      -2.34382558
O        2.36850998       1.01040004       6.14844005      -2.49898332      -1.90939406      -0.13552356
O        0.73610602       4.92747004       4.31167997       0.38175173      -2.81257352       0.92820914
Al       2.05262000       6.10933997       0.37907993      -1.45698439       0.18719148      -1.47751990
Al       4.77827996       6.28830997       0.29168695       2.36191850       1.84579870      -1.22502720
Al       3.27091004       6.58482002       5.27892004      -0.50455172      -2.97059206       2.13517018
O        4.63214002       6.27091997       6.46640990       0.49671150       1.11016634      -1.13186385
O        1.61437996       6.35643004       6.47217005       2.70830016      -1.03721757      -0.41761718
Al       3.73285996       1.98343996       6.20954006       1.99555154       1.79614012      -0.05896456
Al       0.83658598       2.17215003       6.17428990      -0.07303154      -3.05382614       0.14618912
Al       2.53561000       2.10562003       0.88517098       0.71212863      -0.84891967       1.52861862
O        1.01830997       2.08451997       0.17263595      -3.56296121      -0.18106342      -1.16292676
O        4.12025997       2.00249002       0.12157703       0.76711348       0.78373150      -0.48377318
Al       4.79235998       2.12464998       3.17746999       0.52548575      -0.41798082      -0.06567689
O        3.46292998       2.20628998       4.37378006       0.20950790       0.17542224      -0.16887045
O        0.80191697       2.07220998       4.06591004       1.35728721       0.06183110       1.53682585
Al       0.77496003       6.16081003       3.20459004      -1.91534628       2.51560564      -1.01052463
O        2.11600999       6.16734004       2.13801992       1.89695141      -0.76629360       0.18573852
O        5.03579004       6.22052004       2.05370993      -2.33684070       0.29930136       1.82171955
Al       7.39532999       0.70061697       4.25470997       2.17295534      -0.22028829      -1.84452348
Al       5.77507999       4.67160000       6.18867003       1.08693823       2.53686274      -0.90448650
O       10.52119995       3.17542998       6.34226996       0.94948278       0.92068531       0.53658339
O        8.66179003       7.83533002       4.46482992       0.87914857      -2.18404334      -1.59105802
O        7.31745000       3.48536002       6.16340994       0.57859973       2.87014858      -0.31446687
O        6.01468005       7.89477998       4.27898006       0.68813209      -0.01308411       1.89686214
Al       9.09659998       4.99679997       2.32783001      -0.44101804      -2.02571464       0.50507124
Al      10.82550004       0.68129198       0.28291906       0.96716118       1.17893742      -0.95525557
O        6.07398002       7.78312004      21.40149997       0.84471788      -3.49072176      -1.24455254
O        7.75774002       3.71825003       2.26776009       0.80540132       0.26827945       1.08686349
O        9.00508995       7.43179997      21.26032696       1.68967507       0.71782573      -0.16080232
O       10.38110000       3.42008002       2.12562002       0.01002048       2.31690346      -1.54101923
Al       9.19066998       7.73503999       2.27185002      -0.81330983       0.94007686       1.05713707
Al      10.76359999       3.56956001       0.35217298      -0.03000902      -1.51261386      -0.92199686
O        6.24333003       5.28248997      21.34539993      -1.07029174      -1.59444544      -0.86958024
O        8.11470004       0.72785700       2.16872010      -1.63042638       1.43700794       0.35792509
O        9.24173996       4.86107002       0.13693495       0.65633615      -0.25557964       0.62445438
O       10.58060004       0.50230203       2.01966994       0.20920503      -0.00643525       0.65951526
Al       7.52686004       3.58444000       4.15330002       0.71760960       1.30041616       0.02803806
Al       5.93829994       7.59858997       6.13230008      -0.34725325      -1.48777722       0.33967740
O       10.98120000       0.64344298       6.56861005      -0.93624126       1.34050626      -1.17510661
O        8.93218005       4.88646003       4.29498004      -0.25948324       0.91743961      -0.98762960
O        7.86083994       1.09388998       6.11582997      -1.00100318      -1.44654328       1.42588068
O        6.38050999       5.14305998       4.48704003      -0.82714374      -0.46379082      -1.70290398
Al       7.59007001       6.48602002       0.03394781      -1.78502096      -0.15979282       0.68208786
Al      10.38270000       6.26748999       0.06228574       0.13075143      -1.34071347      -0.10901649
Al       8.69859003       6.16133004       5.61744992      -0.22607217       0.80674793      -2.35018429
O       10.29400001       6.36565001       6.28749006       0.00313102      -2.55805565       0.54192748
O        7.22376998       6.31608003       6.57661990      -0.89878943       1.00685513       0.51892609
Al       9.45171998       1.78422997       5.88233990       1.44943004      -0.18750057       0.89172137
Al       6.50878997       2.09799002       6.61185999      -1.98331312      -0.18301120      -0.39255173
Al       8.14058997       2.39534002       1.18477003       0.47008106      -2.16148433      -0.84033851
O        6.62173005       2.31307998       0.32700207      -1.74535738      -0.10649885      -0.58898846
O        9.55123004       2.04827004      21.31777609       0.90088052       0.45402579       1.43114808
Al      10.54700004       1.99273002       2.98177005      -0.78706972      -1.05741252       2.33595339
O        9.12758995       2.18243997       4.21836005      -0.27093024      -0.53124886      -1.00144194
O        6.28502000       2.11633003       4.14940990       1.04253163       0.61047098       0.62743275
Al       6.30009999       6.52777996       3.23436002       1.31556044      -2.18025917       0.21738687
O        7.82295997       6.38152997       1.82378992       0.01831291       0.64409892       3.54694553
O       10.49249997       6.26770999       2.04432998      -1.28794710      -0.07222387       1.44070408
80
Lattice="11.174 0.0 0.0 0.0 8.413 0.0 0.0 0.0 21.437923" Properties=species:S:1:pos:R:3:forces:R:3 step=0 confid=0 wdir=cand3 energy=-583.07477551 pbc="T T T"
Al       2.07446997       0.73773000       4.12955002       0.43907266      -1.03773627      -0.31518940
Al       0.47701001       4.90209996       6.15681006       0.64412941       0.39048048      -0.23273700
O        5.10804001       3.42170003       6.41401990      -0.77630608      -0.87426964       0.29154769
O        3.36786003       7.81511998       4.18514005      -0.51240229       0.59318593      -0.81034084
O        2.00848996       3.54964998       6.23301994      -0.32219113      -0.73664527      -0.29094687
O        0.70251094       7.78256999       4.29546004       0.37200138       0.59883365      -0.28895247
Al       3.58763003       4.83343003       2.28690994      -0.65800008      -0.59348868       0.68020664
Al       5.31328002       0.71855197       0.45804095      -0.73857710      -0.25218209      -0.15383403
O        0.58465195       7.63701996      21.40073999      -0.58770648      -0.25874118       0.32788127
O        2.23321005       3.46183004       2.36134992       0.75672748       0.83930560      -1.34756162
O        3.44254995       7.49817997       0.26681510       0.36195143       0.52157302      -0.02021284
O        4.89994996       3.52257997       2.14021002      -0.00588702      -0.54969174       0.28974399
Al       3.45609999       7.83532001       2.25880997       0.08874121      -0.30556095       0.95393667
Al       5.21739000       3.40859997       0.37309103       0.33842295       0.95657486       0.08961537
O        0.66028205       5.05159998      21.25511604      -0.18163771       1.02511338       0.88658806
O        2.21340995       0.80263503       2.17904010       0.44482474      -0.89187282       0.94978033
O        3.53904001       4.94023004       0.26862103      -0.53933866       0.47951644       0.58123573
O        4.88517000       0.62919296       2.17621008      -0.35078060      -0.31136608      -0.10734011
Al       2.10857995       3.69478003       4.16817001       0.46307038       0.24907647       0.51399364
Al       0.46514602       7.69398001       6.06289995      -0.32845014      -0.74072275       0.27486006
O        5.03640998       0.86250202       6.50059995       0.50343172      -0.22587131      -0.16557915
O        3.42912003       5.02971996       4.13300002      -0.62762720      -0.45307428       0.44090621
O        2.16158002       0.94958902       6.21155994      -0.08172920      -0.27956556      -0.05878908
O        0.74731198       4.92350003       4.37523998      -0.52242435       0.07802140      -1.33745812
Al       2.03274000       6.29136002       0.30290992      -0.61082283      -0.34351426       0.10273828
Al       4.79172005       6.31019000       0.31492202       1.29047115      -0.95491784      -0.30718385
Al       3.28917998       6.45095001       5.33258002       1.13863028      -0.82291067      -0.40645038
O        4.90723999       6.38614997       6.23369009      -0.34688605      -0.47358216      -0.37542110
O        1.79975003       6.32263998       6.29459995      -0.81902869       0.86800661       0.98495997
Al       3.68531001       2.07164000       6.17202005      -0.28386818       0.32997580      -0.38895718
Al       0.77893999       2.11934003       6.23052007      -0.13170887       0.35828438       0.39208783
Al       2.39424996       2.14328999       1.03487993       0.50436796       0.74966541       0.77260689
O        0.83768405       2.18827001       0.16912292       0.48099962       0.09739427      -0.23410245
O        3.98504005       2.02876004       0.07384250      -0.64462278       0.18495698      -0.08713829
Al       4.86824999       2.06108001       3.22322002       0.67745520       0.52599901      -0.41333770
O        3.43715000       2.15591000       4.29233996       0.31796363       0.12754859       1.03514837
O        0.86818103       2.15615002       4.31831007      -0.68629579       0.01265217      -0.14934529
Al       0.63312499       6.33576998       3.22119006       0.50329124      -0.08523351       1.33274029
O        2.12703001       6.40389004       2.20971005      -0.46949474      -0.67234809      -1.45441204