80
Lattice="11.174 0.0 0.0 0.0 8.413 0.0 0.0 0.0 21.437923" Properties=species:S:1:pos:R:3:forces:R:3 step=0 confid=0 wdir=cand0 energy=-573.16892719 pbc="T T T"
Al       1.46441002       0.39380100       3.57693996       2.63331610      -1.03628112      -0.30213012
Al       0.35608599       4.56958001       6.07982991       0.14745384       1.52940536       0.47604905
O        5.53556999       3.31045997       6.68385003       1.85925553      -0.16698360       1.05608001
O        2.92836001       7.68388996       4.41305991       0.92570801       2.17697310      -2.92553342
O        2.01284000       3.82450000       6.11715998      -0.62393508      -1.42708801       0.62007821
O        0.37066505       7.59852998       4.06275009      -2.32353296      -0.98672046      -0.40110685
Al       3.05698001       4.88226001       2.09880996       0.91108438      -1.88612928       0.48503853
Al       5.41588997       1.02018999       0.30175999       1.43000194      -1.36737868       1.50092978
O        0.08340419       7.84301000       0.11018299       0.22740543      -0.73982752       0.30855491
O        2.26055004       3.12179996       2.44057998       0.74051935       0.10096738      -0.29023414
O        2.83384004       7.01097002      21.05059997      -0.96606319       1.30454641      -0.63461882
O        5.16156001       3.80727000       2.11477007      -1.09132298       0.59311954      -3.69738353
Al       4.03013004       7.91252998       2.94521003       1.23025470       0.91328164       1.69224598
Al       4.95111995       3.57574004       0.18653994       1.48694311       1.45299245       1.36437265
O        0.00016403       5.39738000      21.13329998       3.48363028       0.01484451      -0.95732356
O        2.82122996       0.46891496       2.08834997      -2.23114154       0.19593607       0.35312845
O        3.45565995       4.57165003       0.27723008       0.15297581       0.26560242       0.22100514
O        5.45373999       0.96240202       2.28436998      -0.63333850      -0.12150395      -1.12191420
Al       2.42170996       3.31505002       4.34836990       2.21117776      -0.24822929       1.96902638
Al       0.08038285       7.44978999       5.87453993      -0.33347421      -0.26680024       0.20919310
O        5.62607995       0.69197396       6.37494993       3.83647023      -2.68891110       1.14359224
O        3.35157995       4.86696997       3.88129994      -0.82658717       0.73379667       1.90451955
O        3.12055002       1.63160998       7.42790010      -4.42907702      -0.17821184       1.35990959
O        0.59398805       4.44154004       4.19336000       0.61094143      -0.71936136       2.12854121
Al       1.42137995       6.52630003       0.41246800      -2.18691771       1.05927486      -3.30340726
Al       4.29289001       6.28316004      21.31201100       1.70141834      -0.35727734       1.03254941
Al       3.08132000       6.26256998       5.32390001      -0.98691463      -2.50531046       0.73713736
O        4.70902999       6.05674997       6.17406008      -1.40573959      -0.62489505      -0.27247791
O        1.43653000       6.46022004       6.06863995       2.03542363      -2.78430755       1.08308656
Al       4.47691003       1.89527997       6.53678009      -0.96178940       2.42884148       0.05209734
Al       1.36919994       2.13483997       7.07549002       1.27896480      -0.43091048      -1.31857505
Al       2.56400001       1.95673003       1.05068997      -0.71367053       0.38595883       1.05686463
O        1.01400999       2.13320003       0.25317694       2.39138072       2.15399115      -0.84664829
O        3.99534996       1.95748998       0.02386770       0.44882401       0.99664014      -0.43819527
Al       5.36396003       2.74743997       3.43434991       0.80807392      -1.02413556       3.65307044
O        4.13591006       2.16389999       4.90156007      -1.25540849       2.10832084      -6.23451765
O        1.28533997       1.81134002       4.51540005       0.56171393       1.92303214      -0.52547752
Al       0.11322301       5.45198997       2.91320000      -1.28751129       2.48192083      -0.53251955
O        1.54427999       5.76646000       1.91236006       0.11846910       0.71340693       1.12600870
O        4.32316004       6.30701998       2.05195996      -1.65915209       2.35620908      -1.60372288
Al       6.95396995       0.37331703       3.18090992      -0.94768011      -0.08641266       2.53212146
Al       6.16049996       4.79960001       5.81931005       0.52080359      -2.12109139       1.21288862
O       10.85000004       3.11827004       7.22048005       2.24216098       0.58227294      -0.97497001
O        8.90562995       7.84045000       4.48617994      -0.81606566       0.28582779      -0.13584069
O        7.94723005       3.50938999       5.85360001      -0.31641103       0.10128459       1.00134902
O        5.64256998       7.62140998       4.09053000       1.06458757      -0.54657739      -1.54459769
Al       8.52693002       5.10306003       2.06354008       1.24881810       3.13908402       0.50952522
Al      11.01109995       1.06839001       0.68944896      -2.06116142      -1.10816274      -0.83518618
O        5.69726995       7.77270996      21.32529994      -1.27105693      -0.04253692      -0.50646326
O        8.01909004       3.51656998       2.27918007      -0.14203368      -3.65696152      -0.81812281
O        8.47590004       7.65514998      21.43459991       0.77937887      -1.00308989      -2.42802944
O       10.76819999       3.93507996       2.13148007      -1.04895750      -0.49035233      -2.56494642
Al       9.87553002       8.14535000       3.02616992      -1.05101154       0.73303133       1.83959294
Al      10.62050004       3.82403997       0.25211598      -1.09551354      -1.01387321       1.31987740
O        5.78835000       5.35322000      20.96160001       0.23514844      -1.49604208      -0.16065848
O        8.28290003       0.64984704       2.11618990       1.00382111       0.53113268      -0.27253693
O        8.99942998       5.00520002       0.25567296      -1.51617724      -0.41068112       0.50610922
O       10.96049995       1.08096996       2.49839999       0.88959414       0.37556647      -0.51560580
Al       8.38955999       3.21671997       4.12348009      -0.92766797       1.56356951       0.97127633
Al       5.79623002       7.35299002       5.94762009       1.15133078       2.62257203      -0.89638304
O        0.11859000       0.54340602       6.76970999      -0.58317609       1.96283744      -0.41032597
O        8.95524005       5.02133001       3.95263999      -0.22393952      -0.99301069      -2.31051643
O        8.48496997       1.37192002       7.35263005       0.32180492      -1.87977897       1.10451451
O        6.18718996       4.55217999       4.05834010      -0.56279932       0.55507176       1.01914203
Al       7.10027996       6.62634002      21.33282101      -1.32817327      -0.40055238       2.37591612
Al       9.86566997       6.56965996      21.33172103       0.09784480       1.27414150       1.84349837
Al       8.78245001       6.16492004       5.19311003      -2.11318435       1.52452973       0.34620653
O       10.13320000       5.91503997       6.14808997       3.05066414       0.29349293       1.14993714
O        7.26123998       6.31485997       6.15368998      -1.15398362      -0.47574389      -0.44843900
Al       9.77317998       1.90397001       6.42985995       3.02877213       0.56750118      -0.18182161
Al       7.17284995       1.99421003       6.61080996      -4.21495652       2.90616573      -2.13741343
Al       8.05002996       2.13003001       1.08409990       1.74480015       0.59490188      -0.68032516
O        6.65084000       2.29330001      21.41437344      -1.55725430      -0.00680158       0.50780649
O        9.72997001       2.18088003       0.06188635      -1.49317221       0.77303570       1.24431284
Al       0.07536338       2.84015998       3.44602993      -0.28680105      -1.70568612       0.34382614
O        9.99613994       2.51273999       4.66177004      -1.56818152      -0.92831350      -0.42641728
O        6.99888004       2.04116997       4.12984994      -1.07727766      -2.53112628      -0.82979757
Al       5.73067004       5.69568000       2.76873991       1.60229674      -2.43565700       1.97897560
O        7.10669004       6.29898001       1.89410009       0.59027413      -0.62428981      -0.75157981
O        9.98539000       6.63083997       2.25993997       0.46870553      -2.75807671      -2.10419212
80
Lattice="10.92816229 0.0 0.0 0.0 8.27646055 0.0 0.0 0.0 13.06896663" Properties=species:S:1:pos:R:3:forces:R:3 step=0 confid=1 wdir=cand1 energy=-574.22800344 pbc="T T T"
Al       2.14143001       0.59218804       7.14814004       1.53829414       0.75397817      -1.10217463
Al       0.53959703       5.00251001       8.88596993      -2.79530073      -2.47410681       0.27690318
O        5.13637998       3.35135001       9.47815004      -0.50079030       0.30907481      -0.77385380
O        3.38516995       7.48873004       6.93828001      -0.67000012       0.85413126       1.00483837
O        2.45029004       3.22491002       9.04450996       0.04545414       0.37886367       0.14456207
O        0.91215305       7.65074002       7.40140002      -2.21684309      -0.42789703      -0.23665662
Al       3.82647996       4.45528004       5.23535994      -0.02551200       2.04797594      -0.18775560
Al       5.04760003       0.77995800       3.20413332       0.94342720       1.01209299      -2.40622442
O        0.58734097       7.55108001       2.74753342      -3.37263519       2.69091658      -0.04738450
O        2.32910000       3.37497997       5.26911003       0.64190894       1.03982347      -2.08450871
O        3.42848995       7.37871999       2.90303334      -0.79199235      -0.01106277      -0.26754246
O        5.15929994       3.27096000       5.07501000      -1.54111717       0.41669345       0.57375736
Al       3.32194004       7.72766997       5.18263006       1.90792715      -0.74410832      -1.54733059
Al       5.32264002       3.51272998       3.19063334      -1.55491974       1.65260826       0.81343091
O        0.61567004       5.09466004       2.58713342      -0.30197599      -0.80630159       0.80599790
O        2.12720001       0.77768197       5.08284994       0.32671911       0.15149578       0.78317782
O        3.88163003       4.66861997       3.16473339      -0.42533080       0.50227418       0.82988729
O        4.74369002       0.65916099       4.83925002       0.06328740      -0.04948298       3.68907797
Al       2.05218004       3.55153003       6.97245000       1.42685367       0.55512927       0.52660115
Al       0.60081004       7.62492003       9.25206998       1.20321872       0.30646727      -1.24688732
O        5.26831000       0.97612998       9.64549998      -1.20515763      -3.51437538      -0.77610695
O        3.40448001       4.78036998       6.98770005       0.87769938      -0.89260375      -0.37001751
O        2.31492999       0.48916497       9.08518006      -0.14219528       2.67653661       0.34420175
O        0.89991996       4.90778998       7.15404996      -0.75705513       0.35584681      -0.45951903
Al       1.79512999       6.44948998       3.00033337       3.18730908      -1.22826598       1.56270941
Al       4.73477996       6.23118998       3.10733331       2.85531402      -0.21295518       0.87231647
Al       3.32119999       6.10351001       8.09399997      -0.18182068       0.70961965       1.10198555
O        4.90880996       6.23933004       8.94321005      -1.25808608      -0.34576594       0.57809815
O        1.84425995       5.91482997       9.25454995       3.59960955       3.75313743       1.05736754
Al       3.75471002       1.96133998       9.09828000       1.50297057       0.46539537      -0.36767665
Al       1.10548000       2.21827003       9.12688000      -3.25053097      -1.44153446       1.06167896
Al       2.40681999       2.27255004       3.91033336      -1.84281160      -1.84593252       1.04227893
O        0.80645401       2.23128998       3.01863332       0.64364419      -0.29099750       0.30793414
O        3.73363003       2.20833000       2.86893340       3.16602117      -1.58151380      -1.05108218
Al       5.07304003       1.92873999       6.29797004       1.28939137      -1.17464528      -2.52010107
O        3.57845996       2.01674997       7.14779999      -0.61938455      -1.01096664       2.11671813
O        0.86088904       2.13812998       7.19008999       1.59206281      -0.30376316       1.48579899
Al       0.82717501       6.49880999       6.09157996       0.25991569      -2.52960984       0.93313954
O        2.08932005       6.38525000       4.88804000      -0.25904876      -0.52107030      -1.12906532
O        4.73710001       6.27603002       5.10107004       0.32354335      -0.63698300      -0.98712103
Al       7.87136001       0.75494496       6.92948996      -1.98525609      -0.40236329       1.82864671
Al       6.06419998       4.79991004       8.84780999      -1.09362930       1.78214712       1.00321229
O       10.63869997       3.57194996       9.67187002       0.73198304      -1.63666644      -1.71578472
O        8.93893994       7.57516004       7.26374995      -0.30258495       1.56142846      -0.77526397
O        7.56573996       3.86987001       8.99306005       0.72208982      -1.17813243       0.06778127
O        6.16066002       8.06415998       7.13716995       1.36052350      -1.87909249       0.33530334
Al       8.97392995       4.69066001       5.21261001       0.12330093       1.94713353       1.62553378
Al      10.56729995       0.81923601       3.28083338       1.62520876      -1.46712570      -0.07956603
O        6.10092997       7.56848003       2.78633335      -1.01888266       0.48578214       0.17572518
O        7.47757002       3.49040001       5.38244999       3.89812820       1.26923773      -0.91913997
O        8.96549002       7.48547003       3.10033331       0.74625899      -0.44521112       0.13161159
O       10.40389999       3.58358998       5.16223006      -0.63945781      -0.86323934      -1.47855635
Al       9.14518005       7.60546000       5.32536003      -0.22974789      -0.10869252       0.11074422
Al      10.49979997       3.50011997       3.26983336       0.89164128       0.36832240      -0.33365623
O        6.36893003       5.14990997       2.94933342      -1.34552227      -1.33502980      -0.45847766
O        8.04288003       0.80747897       5.22125003      -1.53060699       0.13780074      -1.08929825
O        9.09959999       4.79445999       3.26543330      -0.87788161      -0.35274370       0.46577236
O       10.38319997       0.66155504       5.08278995       1.05266614      -0.63547787       0.20590148
Al       7.69249004       3.74014999       7.18697996       0.26460074       0.15605349      -0.10130100
Al       6.08144997       7.56174001       8.98661000      -1.89570844       1.68169906      -0.63583996
O       10.74440000       1.03074998       9.48271006      -0.40905374      -0.91667249       0.30789337
O        9.15030000       4.99551003       7.17691006      -1.68439176      -1.19773623      -0.48603367
O        7.91977002       1.50757997       9.92437004       0.15729167      -1.18241363      -0.14693631
O        6.37608000       5.12971003       7.08773005       0.29628331      -2.40407968       1.56935073
Al       7.54637002       6.42096996       3.15943340      -2.26541669       0.62126882       0.76332476
Al      10.19779998       6.17399997       3.16623331       2.28950185       1.41482272      -0.64580005
Al       8.90326004       6.24894001       8.51405001      -1.84737661      -0.19585350      -1.34682671
O       10.32610000       6.23869002       9.51922005       0.19662304       1.65950465      -0.31895570
O        7.34548001       6.47985003       9.40718006       1.07338318      -0.34758346      -0.22472562
Al       9.28168995       2.25897002       9.23072000       1.63601813       0.76645718       0.31505032
Al       6.46410001       2.14235999       9.25554999       0.89594880       2.43389821       0.69352173
Al       7.91188000       2.28230997       4.16603331      -1.95609322      -1.80733779      -1.71076639
O        6.42855999       2.26120997       2.95483337       1.34055928      -2.46389582       0.60794681
O        9.31659002       2.01966999       3.07893340      -0.93366960       1.89156856      -0.30270959
Al      10.43940001       2.12096998       6.09977002      -0.76432548      -0.54961913       0.22742027
O        8.97585003       2.17335004       7.26070004       2.35215916       0.35749728       1.35536894
O        6.64215999       2.05800002       7.38367000      -2.15196407       1.45553167      -0.40186362
Al       6.25097997       6.47169002       6.09281994      -1.53464829       1.74456339      -0.29208575
O        7.74684999       6.37577999       5.14601996       0.49198424      -0.50512583      -1.76857215
O       10.34690000       6.14131002       5.08999997      -1.36200008       1.55125635      -0.90940263
80
Lattice="11.16489217 0.0 0.0 0.0 8.23824755 0.0 0.0 0.0 18.03305895" Properties=species:S:1:pos:R:3:forces:R:3 step=0 confid=2 wdir=cand2 energy=-573.52319223 pbc="T T T"
Al       2.29529997       0.63676496       5.19557999      -2.59448410       2.36479886       1.74459725
Al       0.52117404       4.70261998       7.23715994       0.75203892       0.68675526      -0.26029838
O        4.90972002       3.42653002       7.69154993       1.60986880      -1.12100208       0.51265508
O        3.60065004       7.67784999       5.27465009      -0.29044201       0.25425572       0.03297872
O        1.89647004       3.36812002       7.22042995       0.57140756       1.04220221       0.49559675
O        1.05830997       7.68093999       5.48272995      -1.68259273      -1.59056676       1.22293967
Al       3.51221996       4.87096997       3.62228991       1.80047236      -1.36082563      -1.02228556
Al       5.36905999       0.87411398       1.66694099       0.59349068       1.40842428      -0.10995996
O        0.40647197       7.42571999       1.02114108       2.51272610       1.63807071      -0.45928620
O        2.24288002       3.61708003       3.40008007      -0.14607770      -0.43902314      -0.84280900
O        3.36574003       7.39086001       1.48964103       0.95923492       0.49836646       0.01914224
O        4.83854004       3.57452997       3.23284004      -0.10200629      -0.61397145       0.49909463
Al       3.35344001       7.67280002       3.35646008       1.91503253       0.43730821      -0.48642154
Al       5.27821997       3.63049000       1.49424108      -0.59008769      -1.70829268       0.24733620
O        0.53900303       4.95760997       1.33594112      -0.55139463       0.07129422      -0.94757105
O        2.10112999       0.90134304       3.42170008       2.08316542      -1.63072587       0.18018211
O        3.51851004       4.97651000       1.13754105       0.77305160       0.21071343       1.07460471
O        4.86924997       0.54386900       3.39415008       0.33423566       1.20224470      -1.13078520
Al       2.05590001       3.60841001       5.19070998       0.45092069      -2.07482574       2.17962875
Al       0.66393003       7.66065001       7.44517993       1.77587480      -1.44605151      -2.67322281
O        4.99894995       0.91012402       7.71915007       1.32145411      -2.08920377       0.30985773
O        3.52255005       4.94056998       5.37598001      -2.05254340      -0.05257551       0.77609717
O        2.06469995       0.92738496       7.48429003       0.13812068      -0.08998738       0.21037369
O        0.86668201       4.83907000       5.41371004      -1.53879420       0.20055356       0.94907212
Al       1.87442998       6.12171002       1.50094109       2.24406028       0.94171754      -0.97883949
Al       4.91203997       6.27489002       1.37684100      -1.38153274      -0.32616718      -0.00917198
Al       3.44105996       6.41405997       6.54757000       0.59482172      -1.40023411      -2.16635401
O        4.93786002       6.18869003       7.51409002       0.25901402       1.71905457       0.21135790
O        2.25628001       6.44202001       7.70134008      -4.43826582       0.13495650       1.46229068
Al       3.68152003       2.06646999       7.34466005      -2.62137345       1.17377266      -0.89119462
Al       0.58847702       2.05075998       7.36503002       2.57395366       1.36665776      -1.40776704
Al       2.37498995       2.07963001       2.19645994       3.84778867       1.92170539       1.45988870
O        0.93435700       2.11698000       1.40564106      -3.00314315       0.93861493      -2.34561644
O        4.00593998       2.07199999       1.28634101       0.03859689      -0.07403742      -0.24637076
Al       4.83475000       2.11080997       4.27609001       2.60605698       0.61376423       0.10256007
O        3.49263998       2.21359001       5.40655993      -0.60748458      -0.94175572       1.56014622
O        0.71234602       2.04823001       5.44161006       0.03852453       1.11832246      -0.57466999
Al       0.78566598       6.23054996       4.42841994      -2.26668282       1.90816766       2.71102057
O        1.95143000       6.52362002       3.28060005       2.33618327      -2.14545724      -1.63505970
O        4.75382005       6.11592999       3.47603008       1.06357591       2.01627309      -2.52103724
Al       7.44656004       0.52077497       5.28574006       4.53324672       2.61723944      -1.41175050
Al       6.03519999       4.88335000       7.28255005       1.11885410      -2.69082523      -1.70628248
O       10.61230001       3.38609003       7.98675002      -0.55711759      -1.27255916      -1.10658588
O        8.99181003       7.74064998       5.48968999      -0.44823349      -0.20491802      -1.62032921
O        7.64006001       3.45944001       7.34023005      -1.60099307      -1.22374398       1.03428256
O        6.40397995       7.47397997       5.45309009      -2.04040429       0.17705510       2.94517769
Al       9.07107999       4.95228996       3.58562005       0.26414635      -0.83904624      -0.62225044
Al      10.89489996       0.84378199       1.57024105      -1.96729044      -1.33145965       0.06516519
O        6.20652995       7.63699001       1.10124104      -0.42883693      -1.46707428       0.30637747
O        7.74202998       3.52893004       3.55688996       0.86383598       3.32734404       0.68269586
O        9.17717002       7.62863997       1.50744110      -0.77805872      -0.53990876      -0.45365319
O       10.28000000       3.55556001       3.34472994       1.14174567       2.02614117      -1.37675010
Al       9.23733997       7.85583996       3.46508997      -0.23558617      -0.89252999       1.27150463
Al      10.80489998       3.45926997       1.58274103      -1.09658642      -0.00069131       1.21833473
O        6.29895996       4.99886003       1.00864110      -0.80272782       2.63943558       0.61478281
O        7.99204005       0.85231204       3.30185003      -1.18482576      -0.50251251       1.78476365
O        9.04885002       5.06894000       1.55264097       0.15020879       0.83373520      -0.24041997
O       10.50479996       0.82984296       3.31014992       1.11404343      -0.37345986      -0.50248887
Al       7.62491004       3.51343002       5.35061002       0.51363557      -0.34839033       0.00060648
Al       6.22048997       7.44007999       7.32917994      -0.62340593       1.74172394      -0.70300936
O       10.53309995       0.79562103       7.62372002       0.58044360      -0.52668475       1.02810209
O        8.98351005       4.87672999       5.38193994      -0.97726514       0.60204869       0.71529545
O        7.73171005       0.85874899       7.23666998      -2.45803319      -0.11603693       2.25660734
O        6.16291999       4.62792997       5.35539004       1.26338997       1.95925867       1.92035343
Al       7.68656000       6.45870996       1.51314099      -0.71485849      -0.62436313      -0.11506012
Al      10.38169999       6.28544000       1.40394108      -0.79891002      -1.33688287       1.44796286
Al       8.91599997       6.28222000       6.48612992       1.78944107      -0.11517485       0.58956815
O       10.66999995       6.21124997       7.30823995      -0.75000345       0.23442028       0.62388293
O        7.47926000       6.23706996       7.64900994      -0.18035616      -0.61508074      -0.32705190
Al       9.21934998       2.04527001       7.39324003      -0.59197502       0.84170166      -1.60823781
Al       6.30573002       2.06085999       7.65874996       1.37190132       2.17060171      -2.25212406
Al       8.01865994       2.37490001       2.40010006       0.85412058      -1.97015545      -1.66704557
O        6.65251001       2.33150001       1.37654111      -3.73625509      -1.08362823      -0.67244982
O        9.43791000       2.28255996       1.28624111       2.47909565      -0.57523056      -1.03548564
Al      10.29419995       2.21527004       4.33564003       2.89281253      -1.64088248       2.52882436
O        9.08788002       2.20741998       5.54862004      -0.70375507       0.34954590       1.41881964
O        6.56069004       2.00065998       5.17128008      -3.73901786       0.70974203       1.04218421
Al       6.35537002       6.20038002       4.39389998      -2.34187568      -3.41362564      -0.83210884
O        7.78008004       6.42057997       3.38869994      -0.02991089      -0.61100204      -1.03867423
O       10.44170001       6.37738000       3.53530006      -1.47140411      -0.67741763      -1.45623350
80
Lattice="11.174 0.0 0.0 0.0 8.413 0.0 0.0 0.0 21.437923" Properties=species:S:1:pos:R:3:forces:R:3 step=0 confid=3 wdir=cand3 energy=-572.76550635 pbc="T T T"
Al       1.20911005       0.27682800       3.20682001       1.97092171      -1.51239035       0.44102287
Al       0.51224901       4.86444001       6.11460994      -0.07737376      -1.41075866      -0.30328093
O        5.21961005       3.29747998       6.99438992       1.14148057       1.43393908       0.62265425
O        3.19253002       7.61322001       4.14347009       0.45643922       2.49584649      -1.78402558
O        2.05478999       3.82380003       6.06862002      -0.11847497      -2.12863511      -0.07125093
O        0.33382895       7.13112002       4.00708996      -0.52206142       2.61098938      -1.39433826
Al       3.38561998       4.80418998       2.39247006       0.85235467       1.70294169      -1.60959550
Al       5.05213001       0.68826997       0.23663308       0.32072038      -1.10732649      -0.00127165
O        0.15250599       7.85946002      21.39567850       0.74960711      -2.63538563      -0.48169380
O        2.11408001       3.49447004       2.32261995       0.82074876       0.07582326       1.17205073
O        3.57505001       7.86863002       0.49408410       0.13678217      -1.93439472      -1.12014888
O        4.82293998       3.65784999       1.99172990       0.25201699      -0.62713643       0.69143798
Al       3.99795004       8.20969001       2.60534992      -1.54633688      -1.57491163      -0.57526513
Al       5.57135998       3.32291996       0.36288508      -0.97533719       1.45666968      -0.50096867
O        0.36258200       5.44912997      21.27559998       1.63774339      -2.41012177      -0.40201212
O        2.45120999       0.86421499       1.96656006      -0.80389497       0.24584064       1.71934615
O        3.25221002       5.06282999       0.43608208      -0.62128370       2.07027137       0.26737571
O        5.26069998       1.01392004       2.11539005      -0.95354404      -1.13865215      -0.33661934
Al       2.35825002       3.28548001       4.27941011       0.74541494       0.81104277       0.42041329
Al       0.04472192       7.40047997       5.74343009       0.55782948       1.34701334       0.20601543
O        5.51161003       0.74421003       6.59347997      -1.04873083       0.40441374       0.09616824
O        3.48230994       4.85143999       4.14305998      -1.84850463       0.16810346      -0.41516159
O        2.56860001       1.41242997       7.33502008       2.37009411       0.78898424      -1.26639256
O        0.40905198       4.40382002       4.26366995       0.28299762      -0.39394824      -0.37583232
Al       1.88577005       6.38570004       0.45659903      -0.55948941       0.23624482      -1.18640109
Al       4.69753005       6.33728003       0.27502904      -0.54623390      -0.55314340       0.65185087
Al       3.13473005       6.26376000       5.20719003      -1.10001037      -0.72172800      -0.44855106
O        4.64868000       6.20481002       6.08927010      -1.05850276      -0.23316481       1.17683329
O        1.61787005       6.49728999       6.10402003      -1.18364442      -1.17684134       0.71231452
Al       4.02944999       2.22687996       6.48753997      -2.50582902      -2.82548073      -0.46420803
Al       1.18038996       1.99925001       6.56559995      -0.64609173       1.08635857       0.20629515
Al       2.67784999       2.50824004       0.93784310      -1.93503591      -1.34215216       0.87957011
O        1.12787004       2.42477997      21.42401193      -1.39000620      -0.24411490       0.68940348
O        4.02817996       2.20845002      21.36510009       2.86050948      -0.34368571      -0.87819598
Al       5.25500001       2.39607002       3.23555990       0.89786920       0.60291477       1.60138175
O        4.04118001       2.36367004       4.55665990      -1.38398552      -0.39687067       0.46901723
O        1.18121997       1.71724002       4.32093000       0.21611110       1.51790610      -0.13731621
Al       0.17589898       5.59927997       2.90665007       0.10967340       0.23621972       0.27647242
O        1.62197002       6.34526001       2.13380008       0.33856105      -0.73287667       0.72388347