80
Lattice="11.174 0.0 0.0 0.0 8.413 0.0 0.0 0.0 21.437923" Properties=species:S:1:pos:R:3:forces:R:3 step=0 confid=0 wdir=cand0 energy=-575.46037282 pbc="T T T"
Al       2.21459003       0.75113603       4.14053996      -1.48311738      -1.12453513       1.16435987
Al       0.09114408       4.92153997       5.92079010       2.41489477      -0.89437424       0.99457870
O        5.09632999       3.50466003       6.69360000      -1.08105703      -0.51735453      -1.98830168
O        3.46442004       7.78048996       4.12542000      -0.46937662       0.32152535       0.84099356
O        2.17775997       3.60824997       6.28017008      -1.23270929      -1.16749670      -1.69617838
O        0.84791497       7.77202001       4.39649997       0.22041536      -0.84832939      -1.35404234
Al       3.58741002       4.83747996       2.31539001      -0.22925997       0.40193627       1.12297612
Al       5.01052004       0.66462700       0.29849992       0.95149511       1.97302927       1.01662255
O        0.69484402       7.62218002       0.00000000      -0.84361881      -0.87817672      -0.85516642
O        2.25788001       3.50821999       2.29925990       0.26326209       1.27456088       1.18672669
O        3.66330997       7.62218002       0.37110803      -0.23218661      -0.65797281      -1.87133035
O        4.86891004       3.49981002       2.11370010      -0.10144864       0.69547094       0.48992478
Al       3.58741002       7.78202004       2.31539001      -0.17035898       0.12152589       1.10161066
Al       5.01052004       3.54186997       0.29849992       0.97101290      -1.94793419       0.95289243
O        0.69484402       4.99731998       0.00000000      -0.83681955       0.87807973      -0.84773979
O        2.25788001       0.69827900       2.29925990       0.23070379      -0.09241967       0.13484148
O        3.66330997       4.99731998       0.37110803      -0.20861975       0.64521241      -1.82991184
O        4.86891004       0.70669200       2.11370010       0.11338614      -0.43894389       0.35597976
Al       2.23540999       3.65527999       4.23965991      -3.32303125       1.71641343       1.34760370
Al       0.21262401       7.61058001       6.04417993       0.34474669      -0.57632094       0.31120011
O        5.19060995       0.92892299       6.56417004      -2.01532119      -2.51315931      -0.04605733
O        3.24809005       5.16633000       4.27016007       0.64449164      -1.54665620      -1.61803772
O        2.52965996       1.18182997       6.00820002      -4.65985899      -4.15224756       1.70228600
O        0.57569398       4.96878998       4.26259999       1.19217623      -1.79829583      -0.43884103
Al       2.17891000       6.30975000       0.20168905      -2.16838183       0.02583292       1.82054441
Al       4.96132003       6.30975000       0.19362196       2.23527713       0.00306284       2.03927334
Al       3.00293998       6.47552000       5.46457009       1.10804823       0.43800341      -0.58933851
O        4.75961000       6.44878997       6.19549994      -1.90126502      -0.59030176      -0.07154228
O        1.55722998       6.29135001       6.50517995      -1.05615251       1.09545102      -0.30330211
Al       3.82307996       2.21324998       6.04651001      -0.31179727       2.52944868       2.73739211
Al       0.74571197       2.08573001       6.24177005       2.64971664       0.04739786      -0.65237289
Al       2.21289002       2.10325000       1.24240996      -0.12994285      -0.01366678      -1.43011997
O        0.73746299       2.10325000       0.20168905      -1.78170951      -0.00052862      -0.40454868
O        3.62719002       2.10325000       0.08067562       2.00920884       0.02326217      -0.40731374
Al       4.89122005       2.10325000       3.20282998       0.40335278       0.00977649      -0.10590507
O        3.35769001       2.32872000       4.31890005       4.81620488      -0.78742143      -3.12198548
O        0.74584997       1.99685003       4.34443004       0.07425996       1.02217670      -0.95664478
Al       0.78799495       6.23484999       3.14542008      -0.08827500       2.13309765       1.54622609
O        2.20975002       6.30975000       2.08949990       0.80297664      -0.04583718      -1.09106623
O        4.90160997       6.30975000       2.19438001      -0.63870800       0.13283190      -0.67692026
Al       7.75802004       0.35153897       4.19472002       0.08793996       3.53429664       0.27802673
Al       5.78292994       5.03353004       5.78957008       0.86025826      -0.93644643       1.76376650
O       10.67210001       3.30469000       6.40677002      -2.35149866       0.29446278       0.60057433
O        8.97845996       7.48115004       4.08517995      -0.40332553       0.03625320       1.29215254
O        7.48578005       3.43967003       6.36078997       2.85538155      -0.89118462      -1.03261054
O        6.37912006       7.68899001       4.33875992      -0.20662168      -0.23917454      -0.75569212
Al       9.17441002       4.83747996       2.31539001       0.14381961      -0.73774385       1.44518747
Al      10.59750004       0.66462700       0.29849992       1.06158068       1.98092931       1.09430789
O        6.28183999       7.62218002       0.00000000      -0.77537045      -0.88661391      -0.79745418
O        7.84488001       3.50821999       2.29925990      -0.19479259      -0.30276398      -1.13311846
O        9.25030997       7.62218002       0.37110803      -0.32842660      -0.72358600      -1.82379152
O       10.45589998       3.49981002       2.11370010      -0.09732174       0.53132043      -0.00879200
Al       9.17441002       7.78202004       2.31539001       0.68529441       0.07332818      -0.27221816
Al      10.59750004       3.54186997       0.29849992       1.06404299      -2.02003863       1.14627354
O        6.28183999       4.99731998       0.00000000      -0.78424403       0.88029238      -0.81952395
O        7.84488001       0.69827900       2.29925990       0.12404266      -1.20440003       1.25782043
O        9.25030997       4.99731998       0.37110803      -0.35708294       0.71621679      -1.77908875
O       10.45589998       0.70669200       2.11370010      -0.26919200      -0.78666315       0.31929357
Al       7.60259998       3.41158003       4.04762007       0.65759611       1.29484256       0.71607866
Al       5.97715999       7.69295001       6.07149999       0.59417159       0.69711845       0.98915501
O       10.72310005       0.74068801       6.65499009       0.65669584       0.37283470      -0.27749344
O        8.98465002       4.64811999       4.15842990      -0.74337820       1.89154021       1.32367529
O        7.77719998       0.77063400       6.32306008      -1.05638207       0.17075904      -0.66709964
O        6.37223006       4.94779004       4.03043993      -0.48402345      -2.79229043       3.59145678
Al       7.76591000       6.30975000       0.20168905      -2.08487608      -0.00180444       1.60576213
Al      10.54830003       6.30975000       0.19362196       2.35947731       0.02207654       1.99585589
Al       8.62266002       6.14460996       5.38704006       0.93026109      -0.77622356      -1.43253245
O       10.16949997       6.24454000       6.20024007      -0.21120839       0.70478396       0.57373154
O        7.24386005       6.22144000       6.48888992      -1.26367505       0.46322964      -1.25273910
Al       8.96842995       2.14649997       6.18460990       1.88219690       0.62226483       0.67236165
Al       6.30810996       2.13068000       6.40739001       3.02903945       2.01415458      -0.80639909
Al       7.79989002       2.10325000       1.24240996       0.03826896      -0.03851497      -1.65527000
O        6.32445998       2.10325000       0.20168905      -1.77887904      -0.00251929      -0.33745763
O        9.21419002       2.10325000       0.08067562       1.88810027      -0.01884651      -0.40084182
Al      10.47820005       2.10325000       3.20282998       0.45319010      -0.00788978       0.99176493
O        8.97555997       2.00916002       4.39872008       0.58964997      -0.43038143      -1.25826131
O        6.38058005       2.10690999       4.35786004      -1.61648483      -0.43087154      -0.80190361
Al       6.43072997       6.32337999       3.11469011      -2.07054386       2.04315813      -0.12011573
O        7.79675002       6.30975000       2.08949990       1.70810792      -0.01806489      -1.80398261
O       10.48860003       6.30975000       2.19438001      -1.07440216       0.00603670      -0.93022422
80
Lattice="11.174 0.0 0.0 0.0 8.413 0.0 0.0 0.0 21.437923" Properties=species:S:1:pos:R:3:forces:R:3 step=0 confid=0 wdir=cand1 energy=-576.05998022 pbc="T T T"
Al       1.90146003       0.56199496       4.07092009       0.79878652       0.53929339       1.68059373
Al       0.33207195       5.16081999       6.24158997       2.01775974      -2.10901778      -0.89834415
O        5.20468997       3.47093997       6.43774010      -0.31314790      -2.85260648       0.44060137
O        3.05631997       7.48296001       4.26041996       0.58819002       3.82219962      -3.72828030
O        2.34096998       3.35919001       6.31700001      -1.13587148      -1.99498374      -0.23754240
O        0.55138997       7.85622000       4.18025993      -0.81503639      -1.55082005      -0.29923273
Al       3.58741002       4.83747996       2.31539001      -0.08365487      -0.07297842       1.64311722
Al       5.01052004       0.66462700       0.29849992       1.16733241       1.87287703       0.91220435
O        0.69484402       7.62218002       0.00000000      -0.76411670      -0.86232878      -0.84444908
O        2.25788001       3.50821999       2.29925990       0.12712556       0.24995944       0.12976111
O        3.66330997       7.62218002       0.37110803      -0.30788731      -0.58842679      -1.79080862
O        4.86891004       3.49981002       2.11370010       0.11177490       0.46730214       0.54978988
Al       3.58741002       7.78202004       2.31539001      -0.32431778      -0.42514788       1.40796354
Al       5.01052004       3.54186997       0.29849992       1.11132303      -1.88752638       0.93932974
O        0.69484402       4.99731998       0.00000000      -0.82495704       0.85762085      -0.87232451
O        2.25788001       0.69827900       2.29925990       0.30008016      -0.63863308       0.54766098
O        3.66330997       4.99731998       0.37110803      -0.24432185       0.63477277      -1.80967802
O        4.86891004       0.70669200       2.11370010      -0.40266340      -0.82447585       0.69956344
Al       2.11527005       3.60075996       4.12891996      -1.32512131      -1.18000271       1.47423394
Al       0.14232201       7.82091998       5.92585010       2.42885126       1.34594121       0.34878325
O        5.02076001       0.89878199       6.87272006      -0.47322654       1.21970885      -0.89104855
O        3.33908005       4.80051997       4.22133992       1.61391820       2.24442146      -0.64537080
O        1.77245005       0.60883501       6.31096009      -1.11418222       1.75331171      -1.07016226
O        0.77056697       4.80576001       4.42196994      -0.81685230       2.05215019      -0.74066280
Al       2.17891000       6.30975000       0.20168905      -2.23379884      -0.04486430       1.85585919
Al       4.96132003       6.30975000       0.19362196       2.46601248       0.00044763       2.12328294
Al       3.09929003       6.27311997       5.39106996      -1.08072459      -2.55579298       0.75198105
O        4.52348997       6.46934999       6.27403991       3.24067536      -0.47220837       1.47829751
O        1.67291005       6.36479996       6.45082002      -1.68443771      -0.38350601      -0.01515922
Al       3.71360001       2.11207002       6.17601008      -1.77309015       1.99587757       1.56827945
Al       0.66800105       2.21464998       6.26136002       1.77642070      -0.23063036      -0.17058513
Al       2.21289002       2.10325000       1.24240996      -0.12135073       0.28573306      -1.71916112
O        0.73746299       2.10325000       0.20168905      -1.68063157      -0.02317532      -0.33454363
O        3.62719002       2.10325000       0.08067562       1.90970848      -0.04198811      -0.30828226
Al       4.89122005       2.10325000       3.20282998       0.15031466      -0.23684492       0.34155927
O        3.47609999       2.16071003       4.44223992       1.06910494      -1.86477704      -2.23791408
O        0.76073899       2.12802999       4.25427993       0.76716041       0.20254999       0.27755576
Al       0.77767196       6.35015999       3.21206994      -0.07601872      -1.13592323       1.33271403
O        2.20975002       6.30975000       2.08949990       0.33891798      -0.07597446      -0.72999928
O        4.90160997       6.30975000       2.19438001      -0.27362030       0.30283733       0.40668544
Al       7.72256996       0.48788400       4.34748001      -1.54735855       0.45496094      -3.06102644
Al       5.97215001       4.97669997       6.10680010      -0.96284362       1.63885673      -0.34749911
O       10.81600001       3.59077003       6.81202009      -0.08020622      -0.53422408      -0.62131790
O        8.96126005       7.70167000       4.16735001       0.09248426      -1.97747066       1.11578077
O        7.81099005       3.41420000       5.90283005      -1.18713535      -0.97200326       2.31156689
O        6.30640000       7.67747000       4.43623001      -0.07764169       1.80467511       1.54073920
Al       9.17441002       4.83747996       2.31539001       0.05147312      -0.02494937       0.97608922
Al      10.59750004       0.66462700       0.29849992       0.87368728       1.93916657       1.16735668
O        6.28183999       7.62218002       0.00000000      -0.91941525      -0.83981225      -0.89774489
O        7.84488001       3.50821999       2.29925990      -0.24254838       0.88240736       0.22484176
O        9.25030997       7.62218002       0.37110803      -0.16440602      -0.76718285      -1.94365074
O       10.45589998       3.49981002       2.11370010      -0.24557334       0.80867320       0.33677855
Al       9.17441002       7.78202004       2.31539001      -0.48564195       0.75084564       1.04155302
Al      10.59750004       3.54186997       0.29849992       0.97906154      -1.95322165       1.05916015
O        6.28183999       4.99731998       0.00000000      -0.86668444       0.81494418      -0.87950705
O        7.84488001       0.69827900       2.29925990       0.02789456      -0.88706900       0.74025271
O        9.25030997       4.99731998       0.37110803      -0.26844748       0.64448147      -1.79382481
O       10.45589998       0.70669200       2.11370010       0.05815249      -0.56208483      -0.01317967
Al       7.56431003       3.63169002       4.07349007       0.57678281      -0.69825981       0.51580577
Al       5.76038997       7.81018003       6.40745990       1.01887766      -4.15586748      -2.39373825
O       10.32500004       0.93444100       6.13521006       2.01400602      -0.33640019       1.73091779
O        8.91618000       4.93400997       4.19238007       0.29082209      -0.93904103      -1.62327104
O        7.57333996       0.75489403       6.26926997       0.96825855      -0.55583160       0.11104070
O        6.32861994       5.02259002       4.34124008       0.25411169      -1.64399379       0.06436734
Al       7.76591000       6.30975000       0.20168905      -2.20736856       0.07997931       1.96566079
Al      10.54830003       6.30975000       0.19362196       2.29342460       0.01944647       2.00799253
Al       8.72684997       6.08812996       5.42134995      -0.57805729       2.62483858       0.67806156
O       10.29550001       6.41993001       6.25082993      -1.92761959      -0.10226977       0.32672887
O        7.06894996       6.28702001       6.68473992       1.22630116       0.33307571      -0.80137347
Al       9.00398004       1.98433998       5.96936994       0.27270569       2.10556142       2.61644852
Al       6.35069999       1.96179003       6.16346010      -0.99283251       4.63019931      -0.05502780
Al       7.79989002       2.10325000       1.24240996       0.04492046      -0.65550575      -1.23607886
O        6.32445998       2.10325000       0.20168905      -1.90579517       0.06545348      -0.38382370
O        9.21419002       2.10325000       0.08067562       1.98626914       0.11611281      -0.46232471
Al      10.47820005       2.10325000       3.20282998      -0.58272356      -0.10878649      -0.14509252
O        8.95889004       2.08979004       4.29075999       1.04499517      -0.35127346      -2.85119897
O        6.41810000       1.94341999       4.29122990      -1.59237530       1.00801819      -0.40232220
Al       6.40519000       6.40389004       3.29812991      -1.00061301      -0.18904642      -1.73180674
O        7.79675002       6.30975000       2.08949990       0.34176515      -0.04045232      -0.16427963
O       10.48860003       6.30975000       2.19438001      -0.69513327      -0.22132161      -0.28932256
80
Lattice="11.174 0.0 0.0 0.0 8.413 0.0 0.0 0.0 21.437923" Properties=species:S:1:pos:R:3:forces:R:3 step=0 confid=0 wdir=cand2 energy=-576.59976972 pbc="T T T"
Al       2.29411997       0.59748503       4.09778009      -2.62209086       0.45460167      -0.63980413
Al       0.16938398       4.82755002       5.88134004       1.37062781      -2.45000200       1.08064699
O        5.05912002       3.50786000       6.66932005      -1.18972058      -3.12257336      -0.63760088
O        3.55543998       7.77922002       4.21089000       0.68305270      -0.00974564      -0.05926652
O        1.60576001       3.60926004       6.07270994       1.84747927      -2.54824342      -0.32974446
O        1.05488996       7.58193004       4.22360998      -1.23864660      -0.29100711       0.60995050
Al       3.58741002       4.83747996       2.31539001       0.38433474      -0.15020900       0.74685436
Al       5.01052004       0.66462700       0.29849992       1.10209991       1.92284495       0.99485029
O        0.69484402       7.62218002       0.00000000      -0.71717920      -0.88609900      -0.91842337
O        2.25788001       3.50821999       2.29925990      -0.01697240       1.08134948       0.76867498
O        3.66330997       7.62218002       0.37110803      -0.36268482      -0.63996247      -1.80773299
O        4.86891004       3.49981002       2.11370010      -0.07414423       0.60104927       0.39772903
Al       3.58741002       7.78202004       2.31539001       0.82228925      -0.30795942       0.24365448
Al       5.01052004       3.54186997       0.29849992       1.07023259      -1.90263543       1.08624829
O        0.69484402       4.99731998       0.00000000      -0.72391275       0.87092897      -0.85065191
O        2.25788001       0.69827900       2.29925990       0.74163724      -0.97686248       0.01058534
O        3.66330997       4.99731998       0.37110803      -0.33756770       0.66180241      -1.87457648
O        4.86891004       0.70669200       2.11370010      -0.01663999      -0.58340531       0.52123711
Al       2.02368995       3.62464001       4.19862001       0.18888016       0.81559513      -1.56334938
Al       0.46290295       7.45645999       5.99016001      -0.93324590       1.34255168      -1.07419997
O        4.86371000       0.80681503       6.54590000       0.93760484      -0.34541457      -0.23879526
O        3.27294002       5.13961999       4.10646995      -1.25744965      -1.98921412       0.09083307
O        1.98872003       0.75919299       5.91315992       1.28208798       1.88626291       2.37719919
O        0.49824900       4.77307996       4.16606009       1.28009117      -0.19221330      -0.73741595
Al       2.17891000       6.30975000       0.20168905      -2.17485843       0.03762846       1.61037221
Al       4.96132003       6.30975000       0.19362196       2.41289922      -0.00988150       2.28999157
Al       3.08774997       6.41686003       5.32882002       3.68852938      -0.64172912      -2.05989667
O        4.66633000       6.11855002       6.27624008      -0.32184066       0.94312953       0.19771450
O        1.74321004       6.13860998       6.22610000      -3.75634715       0.93466621       2.79585897
Al       3.51804004       1.89776996       6.21981997      -0.11234886       0.72782776      -1.22970446
Al       0.56473105       2.08807000       5.89534007      -0.38553912      -0.73215577       2.07361568
Al       2.21289002       2.10325000       1.24240996      -0.14309585       0.12093050      -1.56438357
O        0.73746299       2.10325000       0.20168905      -1.68807597      -0.01201584      -0.38723722
O        3.62719002       2.10325000       0.08067562       1.93545998      -0.02872230      -0.37830124
Al       4.89122005       2.10325000       3.20282998       1.66532908       0.33608221      -1.52140028
O        3.44495996       2.21025999       4.17997009      -0.40663466      -0.31048850       3.70785024
O        0.83389104       2.00521003       4.11299994      -0.50737465       0.73850453       0.29361538
Al       0.93948198       6.15317002       3.14921996      -4.04554468       0.61192697       1.21350658
O        2.20975002       6.30975000       2.08949990       2.58447600       0.30668349      -2.75016921
O        4.90160997       6.30975000       2.19438001       0.11736966       0.18536254       0.05018496
Al       7.48832996       0.52587997       4.21438010       3.42526606       0.76150474      -0.93809317
Al       6.05872002       4.85495999       6.09463001       0.83612312       0.47482629      -0.77391286
O       10.36780003       3.33399997       6.57973998       0.51491818      -1.53631685      -1.27958820
O        9.00960000       7.75933001       4.20264991      -0.68653284      -1.03680594       0.16075979
O        7.53195996       3.38818003       6.06789006       0.37849493       0.47872647       0.35017893
O        6.41846997       7.62804001       4.40777010      -2.39792504      -1.32027626       0.04942908
Al       9.17441002       4.83747996       2.31539001       0.57023693      -0.19723512       0.28664259
Al      10.59750004       0.66462700       0.29849992       0.95662976       1.92294699       1.25367932
O        6.28183999       7.62218002       0.00000000      -0.83795186      -0.84258567      -0.89466418
O        7.84488001       3.50821999       2.29925990       0.03525474       0.61250157       0.34370080
O        9.25030997       7.62218002       0.37110803      -0.36468342      -0.71489162      -1.94292881
O       10.45589998       3.49981002       2.11370010      -0.20812591       0.51612484      -0.00862876
Al       9.17441002       7.78202004       2.31539001       0.35860635       0.61595349       1.49655640
Al      10.59750004       3.54186997       0.29849992       0.94445455      -1.98845026       1.19877145
O        6.28183999       4.99731998       0.00000000      -0.80239644       0.85421292      -0.89040206
O        7.84488001       0.69827900       2.29925990      -0.33244309      -0.88044554       0.95883673
O        9.25030997       4.99731998       0.37110803      -0.36976357       0.66389719      -1.91937764
O       10.45589998       0.70669200       2.11370010      -0.13197890      -0.63825731       0.19077909
Al       7.71869996       3.56651998       4.13962006      -0.33476748       0.25280749      -0.05093813
Al       5.72465005       7.48553002       6.16153005       2.62489161       1.71905912      -1.37190566
O       10.57669998       0.66136898       6.39931005       0.91624306       0.70321913      -0.49626729
O        9.01563999       4.92228999       4.11712010      -1.17016165      -0.04802149       0.77334234
O        7.51375003       0.75587701       6.10068000       0.39817432       1.26388737       1.21931528
O        6.30220997       4.86144002       4.24505005       0.47469785      -0.62788570       0.65927416
Al       7.76591000       6.30975000       0.20168905      -2.11914325       0.02882101       1.71179146
Al      10.54830003       6.30975000       0.19362196       2.26423662       0.06664214       2.33676674
Al       8.79511004       6.23892003       5.31599993      -0.71713232       1.30847026      -0.42076669
O       10.29290004       6.10566997       6.22814003       0.43011134       2.69675946       0.66426220
O        7.32379996       6.20741999       6.45614006      -1.27744323       0.17109889      -0.20680934
Al       9.17119995       1.99245996       6.11864991      -1.38073525      -0.34786800       0.56626549
Al       6.21565002       2.15557003       6.08127011       0.75060002      -0.99004062       1.29619548
Al       7.79989002       2.10325000       1.24240996       0.04662580      -0.14662416      -1.38227096
O        6.32445998       2.10325000       0.20168905      -1.85578622       0.01567036      -0.39906125
O        9.21419002       2.10325000       0.08067562       1.93929693       0.01611859      -0.47394163
Al      10.47820005       2.10325000       3.20282998      -0.83628367      -0.21304937      -1.18626894
O        8.98270999       2.15707999       4.34192009       1.81019238      -0.41767553      -0.60290492
O        6.46503001       2.03345003       4.25916992      -3.29470156       0.74393868      -1.44931534
Al       6.49459005       6.29606003       3.23762995      -2.89788436      -0.41325211      -0.16818033
O        7.79675002       6.30975000       2.08949990       1.21855625       0.07531236      -0.96387090
O       10.48860003       6.30975000       2.19438001       0.03966297      -0.05200684      -0.23497005
80
Lattice="11.174 0.0 0.0 0.0 8.413 0.0 0.0 0.0 21.437923" Properties=species:S:1:pos:R:3:forces:R:3 step=0 confid=0 wdir=cand3 energy=-576.41686019 pbc="T T T"
Al       2.10326995       0.53720597       4.24635004       0.00841335      -0.11081800      -2.55404007
Al       0.38404200       5.02312997       5.97246000      -0.11136357       0.12113490       0.96772373
O        5.06050995       3.22313001       6.63726007      -0.37649916      -0.28608465      -0.18411623
O        3.27570995       7.38726996       4.01544003      -0.53703406       1.86334123       2.08484290
O        2.09880996       3.50020997       6.01790990       0.53548099      -0.84463799       2.19797283
O        0.51694701       7.88133996       4.04405001       1.92292042       0.30270145       2.84249971
Al       3.58741002       4.83747996       2.31539001      -0.39930228      -0.58123236       1.53784625
Al       5.01052004       0.66462700       0.29849992       1.11242562       1.92861844       1.11422026
O        0.69484402       7.62218002       0.00000000      -0.76559060      -0.89969425      -0.85698033
O        2.25788001       3.50821999       2.29925990       0.01017591       0.34147298       0.08447491
O        3.66330997       7.62218002       0.37110803      -0.24373789      -0.76425725      -1.81232222
O        4.86891004       3.49981002       2.11370010      -0.07388868       0.60606833       0.27632375
Al       3.58741002       7.78202004       2.31539001      -0.16250671       0.58687199      -0.32853335
Al       5.01052004       3.54186997       0.29849992       1.07075252      -2.02740326       0.98621495
O        0.69484402       4.99731998       0.00000000      -0.79750503       0.85191785      -0.88143236
O        2.25788001       0.69827900       2.29925990       0.02074369      -0.87488811       0.74858691
O        3.66330997       4.99731998       0.37110803      -0.24252341       0.69065856      -1.74147278
O        4.86891004       0.70669200       2.11370010       0.00764834      -0.91549753       0.40331565
Al       2.09843999       3.49853999       4.12427007       0.35439801       1.18839741      -0.62470142
Al       0.21067504       7.73794997       5.90988999       1.43062629      -1.81561567      -1.27680200
O        5.09519002       0.77978002       6.51529008       0.85803157      -1.57065407      -0.03728120
O        3.31150005       4.72801001       4.26097992       1.67770412       1.13070952      -1.84029321
O        2.09627000       0.73424601       6.05203007      -0.45869971       1.02036441       1.92251076
O        0.77873304       4.97345003       4.26422005      -0.61982821      -0.10367295      -1.00920413
Al       2.17891000       6.30975000       0.20168905      -2.19587147       0.00498497       1.79267059
Al       4.96132003       6.30975000       0.19362196       2.45289507       0.07163654       1.90115846
Al       3.10553998       6.15044000       5.27689008       2.78274686      -0.63891160      -0.13721011
O        4.78042001       6.14008999       6.21076995      -1.51041312       1.44945272       0.08688449
O        1.77158004       6.27678997       6.30830007      -3.16137620       0.89114710       1.10277143
Al       3.70028999       1.94659001       6.22947004       0.03968228       0.56395999      -1.70397412
Al       0.80765404       2.30600002       6.10956002      -0.70151908      -1.80178487       1.61227316
Al       2.21289002       2.10325000       1.24240996      -0.00139524      -0.23772173      -1.40727380
O        0.73746299       2.10325000       0.20168905      -1.79583516       0.06334180      -0.39535823
O        3.62719002       2.10325000       0.08067562       1.96874402       0.03098877      -0.43637316
Al       4.89122005       2.10325000       3.20282998       1.07449477      -0.42362848       0.10442963
O        3.43026000       1.88205002       4.24197006       1.59086172       1.04646109       1.76483793
O        0.94777700       2.20107998       4.38687005      -3.91685471      -1.80357048      -3.57467465
Al       0.83834399       6.41340001       3.14021003      -1.67182442      -0.97552337       0.70710267
O        2.20975002       6.30975000       2.08949990       1.21329537      -0.49690949      -1.90931222