LAMMPS data file via write_data, version 2 Aug 2023, timestep = 27000000, units = metal

10000 atoms
2 atom types

25.430977977317223 74.56902202268574 xlo xhi
25.430977977317223 74.56902202268574 ylo yhi
0 100 zlo zhi

Masses

1 26.982
2 15.999

Atoms # atomic

1669 1 65.54989742123969 37.56635356144948 23.763084328358467 3 0 0
8707 2 67.32549713516741 37.16457246807173 23.916319108494285 1 0 0
7109 2 67.96405023005593 34.10379201821736 23.885830056450022 -2 0 0
5852 2 29.957163930208715 39.88212032670821 23.7182759079537 -2 0 0
6584 2 64.53413073315161 38.576764030084405 22.831062664454873 3 1 0
6015 2 69.04956735755721 45.13141506184999 23.559093736665087 0 2 0
2701 1 69.0345364857288 49.1679964886186 23.545051367004643 -2 -2 0
4461 2 70.18683872944048 48.09503312149375 22.71194153442724 -1 0 0
1870 1 69.82056704195548 46.60939599051615 23.74098128091309 0 2 1
8317 2 73.14032299610594 48.704057705039375 23.33320363105973 -3 0 -1
242 1 71.55856498055122 48.54744258282406 23.87002822385317 -1 1 0
6659 2 67.78277629483824 50.3646395052956 23.529305109154638 -1 -1 -1
8557 2 63.18666438728909 58.793529466243335 23.373308100976402 1 0 0
4401 2 71.02891718508634 67.80877053666048 23.70316760414876 -1 -2 0
9020 2 25.61885380789565 28.68164809076936 27.536313620626085 -2 -1 -1
3068 1 31.868234644475773 27.906286100327737 27.241925813994563 -1 2 1
5980 2 32.218260501228066 26.23652655910776 26.839483242219092 0 0 -1
4918 2 32.06231876532304 29.072311907660982 26.065480934433754 -1 0 0
9708 2 41.486456217199326 28.40192950160354 27.359932169756114 1 1 0
3003 1 42.39994790173526 26.85828944186831 26.878381350119575 0 -1 0
7958 2 43.66357926501603 27.38153309620684 25.851053948212517 -3 -1 0
2246 1 44.735842038120374 28.59892770244459 26.228839131208677 -1 2 0
1133 1 47.70878785969128 29.02606606999211 26.594709627527447 -1 -1 0
6634 2 48.831139753295574 27.608296493438832 26.75158012553811 -1 1 0
6860 2 46.313845767285635 28.91359016000981 25.670299533161014 2 1 0
208 1 49.47793331318282 26.44740587807853 27.83127128111764 0 1 0
1339 1 50.42056567958838 28.953927100218017 27.107100700115932 0 -2 0
2932 1 53.38152325006318 27.95403951558297 26.52080330499167 -1 0 0
7919 2 53.525809646967694 26.295244141895765 26.92894455940809 -1 3 0
8550 2 51.82838803877596 28.64153146788195 26.182247814400732 0 1 0
6794 2 54.33111259153053 28.981494193423398 27.707773100586078 -1 0 0
9496 2 54.74158971138065 27.85039155328961 25.341077789526604 0 3 0
4592 2 56.59082090103898 26.383044282164565 26.81829404711509 0 0 0
1684 1 55.166680725457404 25.987840722166833 26.066441590242047 -4 -1 0
1172 1 55.42402542049354 29.314156684197922 26.113641661730895 -1 4 0
890 1 61.05555541817506 28.370812888047244 25.101834994059654 1 -2 0
8772 2 59.64925298094131 28.27932987750899 26.315957188160336 1 0 0
9611 2 61.86447595462066 26.88938012205271 24.79891116545754 0 3 0
8064 2 61.70892920752416 26.959635153732837 27.578358103004174 -1 -2 0
5505 2 59.35423776237625 25.93153499487692 27.925678049373186 -3 4 0
1834 1 60.05071653056737 27.523377240203434 27.90498323651764 -1 0 0
1648 1 62.37762701901124 26.01220743504068 26.21772874477349 -1 1 1
8836 2 65.80844231712146 27.17307681371091 27.74334348062139 2 -2 0
5392 2 68.84476938454843 26.796865155666463 27.334835270206263 -3 0 1
413 1 70.5292254026591 26.576349172839198 27.38989529040561 -2 0 0
8297 2 71.69058991148316 27.99475971029866 27.105990046781347 -4 -2 -1
5023 2 28.2577457080493 29.965587334692014 27.635415608916848 2 0 0
3376 1 26.584004198316737 29.98174717164362 27.92905506335967 1 1 0
6702 2 25.938866597002118 31.731901612887192 27.85860782340128 -1 -1 0
7027 2 31.860743051759115 32.22262580011636 25.980139292647834 0 0 0
887 1 32.15428275208409 30.70110942643377 26.67386300013193 1 2 0
6204 2 34.02919864510321 31.04141194403311 27.243685607847496 2 -1 0
1653 1 34.68073276772266 32.746317469331856 27.32234265270719 2 -1 1
6596 2 35.99815026839532 33.17863282812801 26.369094057934696 -2 -2 0
3693 1 37.616772602001724 32.69746159379598 26.43776565290371 2 -1 -1
9907 2 38.16390025625679 31.271379022648173 27.0782061655309 -1 0 0
1367 1 40.59411743958316 32.85976302681599 26.813492221285934 0 -2 0
6118 2 40.80761875809284 31.195221650944706 26.345497538858368 -1 0 0
3096 1 41.97388509851781 30.05917634365218 26.81072084091638 0 1 0
8729 2 43.72234950437401 30.12657905090231 26.299216158051504 0 -1 0
132 1 44.03370622810804 31.50595887468777 27.485831771969924 -2 0 0
4465 2 44.240977516047806 33.18023547080553 27.215573780524235 -2 -2 0
3164 1 46.06368354508883 33.1079181611305 27.874621623099273 1 -2 0
6689 2 49.108676899432425 30.118213884746456 26.391651743739633 1 -1 0
4076 2 47.71341763911872 32.451675390060515 27.25074144985468 2 3 0
3241 1 53.77057466116684 32.39412592170996 26.581026234705682 -1 2 1
8623 2 53.10094707208424 31.323812632714073 27.911909519693822 0 1 1
7017 2 52.50210710040927 33.417681647803676 26.049845320246867 0 1 1
5474 2 57.033602509027254 29.86205220748432 26.059468874490303 -2 2 0
4787 2 57.454908876114615 32.80715997493195 26.725377016838156 2 2 0
454 1 56.24133631601456 31.58653252321143 26.979731994736415 -5 1 -1
8376 2 54.954451267054594 31.135670642805273 25.841432947241277 -1 2 0
8088 2 55.177621852501126 32.98951598061569 27.581295263829137 -2 0 0
4577 2 59.92418431909291 29.793691179389725 24.35051444830089 3 0 0
48 1 58.718185627659246 29.76055218533982 25.723404319031236 2 2 1
4755 2 59.60002613449465 31.356076007187873 26.32554013913192 -1 0 0
1694 1 60.9619449630277 31.160559255371307 25.045542075328523 -2 -1 1
3882 1 59.17126881937504 32.960488833558614 26.860869951713397 -2 0 0
7381 2 61.690521368857866 32.71508023854586 24.980041906547825 -1 0 0
9416 2 62.066116775915596 29.856185626374725 25.70617026004554 -1 -3 0
357 1 62.81153352440721 30.3934399434476 27.197407712435854 3 2 0
7448 2 63.9474264759781 31.760778414248207 27.563734430735245 1 2 1
2057 1 65.44725669278326 32.460784904110774 26.804217407767556 -1 0 0
4479 2 64.74746957953835 33.52125609251766 25.592858781620325 1 1 0
9797 2 66.15283465848157 30.122456039095308 27.32200343722351 -1 2 0
4435 2 69.17497581685305 29.76958330659001 26.851391361169835 -3 3 0
4780 2 67.2192974568895 32.20920474476475 26.453339299763655 -1 2 0
3807 1 67.80099723726956 30.72657645886967 27.266190111783807 -2 -2 0
8504 2 69.91789118654505 33.112042862566184 25.86312054468363 1 3 0
1848 1 68.30443735484636 33.45159369336068 25.63119529305592 -5 0 0
2218 1 70.87351186755986 29.63580363218109 27.28656366654917 1 2 0
7377 2 72.19151032102417 30.74536600493596 27.141132782831047 -1 -2 -1
991 1 73.26739135167357 31.943354429769485 27.744068224666698 1 0 0
9872 2 72.9680539210239 33.42375726417024 26.933800720404445 1 1 0
5761 2 28.82105092532182 36.59129238180568 27.391526603986016 2 -1 -1
3871 1 27.03296340673749 36.2004819669228 27.63950392458268 1 -1 1
7631 2 27.705856505925993 34.32738801857459 27.705416388660897 -1 -2 0
409 1 29.384186866718167 34.99444289649814 27.916269212423597 1 -2 0
7205 2 25.57827328300201 36.17176721286313 26.819725360453855 -1 1 0
1585 1 31.61734188611423 33.7003363654881 26.87503365022675 0 0 0
9167 2 33.366669132272705 33.97163189821422 27.480042165476522 -4 -1 0
1211 1 31.809609437706918 36.87117980905997 26.66204401706079 -2 1 0
8401 2 31.020253574289963 35.31357181319621 26.495193703552538 1 2 0
4330 2 33.50633523458821 36.83220142342577 27.12487615917574 0 1 0
9418 2 39.00749583756621 33.79548852868681 26.36273054841463 -1 2 0
9041 2 37.94919438528793 36.59061368139456 27.18362438067159 0 -1 0
1028 1 38.81770132835118 35.17869821532997 27.57027090078764 2 1 0
6017 2 41.6709220935967 34.23595382927766 26.79068707237998 1 2 1
1090 1 43.09498039689393 34.49030534844804 27.707957589499976 2 0 0
4393 2 44.08676782117472 36.014965431215956 27.83263936873609 1 1 0
814 1 45.883490419636125 35.891549882883695 27.98632367341769 0 1 0
690 1 48.23693344755553 34.10874898550434 26.795205501590434 1 1 0
9939 2 46.52916249934921 34.684290498724515 26.84080652654952 0 1 0
4776 2 49.6417079920181 34.84568280137835 26.10187780156431 2 -2 -1
2822 1 49.55388752880549 36.13616548609227 27.591277042775168 1 -3 0
5061 2 48.625577309375835 37.45177325266345 27.266798742082223 0 0 0
713 1 51.23757542796508 34.21713632257498 26.920167100865367 1 0 0
9370 2 51.361595336893636 35.92702510886052 27.8144259336114 2 0 0
7638 2 57.809479703439436 35.21674229313399 27.229097316247 1 2 0
442 1 56.59114627608956 34.06813465355002 27.901715826649475 0 0 0
6632 2 58.09358127789767 37.54843559692861 26.798270875867864 0 -1 0
1877 1 59.279035063764745 36.06300973029697 26.491587917234757 -2 -1 0
8529 2 60.02230749194219 34.45603594201737 26.017072163985613 0 0 0
9285 2 60.223334761484345 37.277974686527145 25.311493971695647 -1 -3 0
1187 1 61.800616307774845 34.114622939715424 25.9975136343089 0 2 0
1223 1 62.03655395059356 37.243380501787094 25.316695828057636 0 1 0
8652 2 62.24397614879437 33.90476439461669 27.694885817837285 1 1 0
6759 2 60.379320849568046 36.10227807212508 27.991332959915102 -1 -1 0
8906 2 65.35648464248212 35.79789552917806 24.22802438740006 4 1 -1
4018 2 62.669093293358166 35.57050826875094 25.21206919873684 -4 0 0
3116 1 64.40413977168234 35.23146307206534 25.58537618831074 -2 -2 0
5656 2 65.01283119762061 36.0334707619817 27.0650382456146 1 3 0
3266 1 64.08129806636947 37.3281914185733 27.83510247390383 -3 0 0
220 1 66.61757130199312 35.162085978846626 27.756681747561718 -2 1 0
2641 1 67.09551086380115 35.42163216309299 24.451854268882563 -2 1 0
8879 2 67.42768643585445 35.02613951209811 26.192366219213103 -1 2 0
634 1 71.18781797403726 33.733694320973115 26.799477234896226 -3 -3 0
2697 1 70.65728726813241 36.94695656142982 26.72701892221403 -1 0 1
4150 2 71.478758244753 35.478426355550695 26.354844635104925 -4 0 0
2479 1 73.01829537129524 36.04778427514352 27.165329020819676 0 -2 0
4718 2 72.2033323343538 37.676986743201034 27.160555291736262 1 -2 0
5407 2 27.02401497563415 40.55281210548065 25.287927225198203 -1 -1 0
2965 1 28.734509567922867 40.31458866568478 24.894111545556417 0 0 0
1019 1 26.25256808156788 40.08582227664644 27.032409688619552 0 0 0
1672 1 29.359786536393845 38.322057568127136 27.65306403140487 1 -2 1
7191 2 26.990351741711788 41.550236466163526 27.636441854655803 0 -1 1
9189 2 27.097317887070254 38.717432546365586 27.784488792139435 -1 2 0
6735 2 29.54391439507189 39.23807616941864 26.119422421522447 -1 1 0
7762 2 32.20569047453364 38.1598517433614 25.442310261202476 1 0 0
649 1 31.03946534525996 39.39702929020826 25.010276365340776 -2 1 0
7697 2 31.784248496235705 40.92066443098306 25.714484790022478 4 0 -1
3243 1 33.312553682684424 40.9769101227709 26.565996064411287 0 -1 1
4715 2 33.41018108760577 39.73468207403596 27.81590622605047 3 1 0
3756 1 33.89870721947297 38.48884015465921 26.457956471489574 2 -2 0
6914 2 35.61072689143179 38.23856295765901 27.06641475759639 -1 -1 0
1066 1 36.20242207606921 39.83279922085126 26.382597247125183 -2 4 0
6344 2 34.62569328691906 40.07927628002023 25.567934876673867 0 0 0
8724 2 35.95019043163191 41.42723248278962 27.629080413596785 -1 0 -1
9672 2 37.57683229786748 39.88180512290496 25.315752304977092 1 -3 0
9909 2 37.83011668534396 39.58688438450227 27.81440074782286 1 -1 0
3249 1 38.960026662938475 40.11396216290007 26.327123527718484 1 0 0
9231 2 40.145131684703934 38.70340782677127 26.860018526130474 2 0 0
4795 2 39.85858036180607 41.622453717306485 26.516847117330233 1 -1 0
3657 1 41.509445644092715 39.110450902908056 27.977062173339956 1 -1 1
8618 2 45.67002245177017 37.78140511805052 27.419144578169384 -1 -1 0
4846 2 43.19370014067751 39.67564236667854 27.471918280814798 1 -3 1
7869 2 45.14266394462032 41.683165882652666 26.948996442875906 2 1 0
479 1 43.82148150824576 41.38926603817351 27.9359621556387 -1 -2 -1
1218 1 47.26544545991633 38.60476538121126 27.407089567131443 0 1 -1
8400 2 47.325947366545286 39.78408705942467 26.23795027517343 3 3 0
1581 1 46.83408589565034 41.300505591428035 26.734796321657925 -1 1 1
8514 2 53.21124653051305 38.044058337156095 27.4938013589475 0 1 0
4754 2 52.07362597774856 41.12624454196681 27.813852877477984 1 0 0
8136 2 55.76194541456652 38.202462662993796 25.38737600765629 1 1 -1
6514 2 54.58562424414952 40.15906476496488 27.041260877598425 0 1 -1
1259 1 54.80302200575472 38.46123501931268 26.823540873444248 0 1 0
6513 2 57.32756925261697 40.56869067700934 26.099494667414337 1 3 0
3432 1 57.35268510963993 38.794320743558345 25.63199679837664 0 3 1
3158 1 55.89642689190595 41.33791144131632 26.877556306522514 -1 -2 0
1820 1 58.30966931645115 41.143004633361926 24.646746159456043 1 -1 0
6348 2 58.64900794410256 39.27557025690297 24.384710791514017 2 -2 0
2238 1 60.342990631596614 39.166367713606945 25.087866768116537 0 0 0
7727 2 60.628440259217946 39.83077550977775 26.72406504579105 -2 1 0
9173 2 60.04180799169287 41.303479827722924 24.998744516366845 0 0 1
5197 2 62.098422740627065 38.682046542483235 24.30935186409015 0 -1 0
1365 1 61.341915272731946 38.800242879085154 27.868195682373518 -2 0 0
9578 2 62.54570147572516 37.8024144892004 26.960768327849372 -1 0 0
1865 1 63.75790786740914 39.44860717165214 24.204806587891134 -2 0 0
7298 2 64.9444445012886 38.490681419100184 25.332800358458297 -1 -1 1
6069 2 63.72796125137171 41.06180678392955 24.845176796762708 0 3 0
304 1 65.8963387225106 39.308167253015085 26.494786700507632 -3 -1 1
6345 2 64.40193742136147 41.56259652662686 27.820049587295955 -1 0 0
8866 2 64.93487475967854 38.93610458185206 27.96673695818573 -1 -2 -1
9384 2 69.9004771958122 37.9550785973894 25.562669289848248 0 1 0
7299 2 66.53831312210085 40.953363872790035 26.617078966774994 0 1 0
9843 2 67.85615270577225 39.941795105275126 24.528476924707814 0 0 1
7964 2 67.28784932692062 38.148713732782426 26.596931940289636 0 0 0
3288 1 68.2792717243561 38.3273760311798 25.027953806166778 0 -2 0
3576 1 67.88714440952249 41.31748578448003 25.475708729002065 -1 0 0
5612 2 69.31022327988707 41.40078046855104 26.528620984398543 -2 -1 0
7160 2 73.67388384611264 40.17924906528662 27.453771235541716 1 -2 0
8590 2 29.090691198519785 42.00698525622085 25.670777130088737 -1 1 0
876 1 27.285248978645065 42.24069932643569 25.960143991909057 0 -1 1
6137 2 26.552291260749783 43.527042640458234 25.302379435353533 0 1 0
1271 1 25.962806638811877 45.12327263851153 25.83476346430161 -1 3 -1
3634 1 28.15819226515611 45.64937600034027 27.926915663971553 0 0 0
2928 1 30.674808811345233 42.38813643850585 26.306661561689964 1 3 -1
8219 2 31.17567339854833 43.938505887850965 25.957886682744263 1 0 0
2019 1 31.457669838545936 45.20625534138975 26.99559611493477 0 0 -1
9300 2 33.4962373471421 42.55360140450446 27.47925395945218 0 1 0
5201 2 29.93579908508314 45.55360847010518 27.951867702033308 1 -1 1
5401 2 35.64318042413826 44.6943075179053 27.9944909875621 -1 2 0
605 1 40.72192280868062 42.06392371630915 27.83074017482259 1 2 1
7701 2 42.42438219294857 42.671692441757074 27.86672795203172 1 -4 0
5227 2 48.00161455161025 42.41928732139696 27.29190706869783 1 0 0
4252 2 53.05528719836752 44.11491227649493 27.391215562200287 -1 -1 0
5104 2 57.490633803723924 42.577373534257 24.22192259248893 2 -1 0
8443 2 55.952806769555 43.18636751951285 26.51369080951227 2 -1 0
3235 1 54.915954915093316 44.42449033695648 27.33797088850566 2 2 0
943 1 57.55138005213424 43.77271461671108 25.445332159671583 3 2 0
4636 2 57.38452476134966 45.527861701042184 25.598279706849418 0 -2 0
1896 1 60.372074505124615 41.86359070731733 26.729092377880406 2 1 0
8380 2 59.072648861049714 43.32929149716589 26.498458835176255 -1 0 0
3642 1 59.78765411771318 44.81536622980426 27.220907628658832 0 -1 0
6515 2 61.46734846889897 45.3682066213594 26.679094784933508 2 3 1
7778 2 62.0693388148332 42.777011845681635 26.832697536495413 1 -1 -1
3563 1 63.45977163097394 42.03925744018229 26.24394234185245 -3 1 0
140 1 62.94378247751441 44.50823762354612 27.109974529269497 1 1 0
5509 2 64.23131504409069 43.63334367418434 26.055580377705873 3 3 0
3520 1 65.67408111610855 44.66123117741062 26.465230405495205 1 3 0
4054 2 64.34515572790914 45.7951575153567 27.138153347770583 -1 1 0
8915 2 66.57184623636171 43.731633611243666 27.789583167378957 3 1 1
4759 2 67.42671879994988 42.928035476781645 25.027981111333006 0 -1 1
1800 1 68.24950936992352 44.36985674118351 24.85190883754007 -3 2 0
5123 2 69.42066793324794 44.40735359551543 26.295121006100814 -4 0 1
3273 1 69.79397265518368 42.968694605036646 27.36796731875594 -1 -2 0
6268 2 66.90114816763244 45.66594524354323 25.62115814258775 1 4 0
1454 1 69.77462445213152 45.835794458245495 27.373014811938177 1 -1 -1
5113 2 73.8460900077424 45.220362330163404 27.006672670026962 -1 -1 0
7962 2 71.57313210500264 43.00063223516974 27.698841583417842 -2 -2 1
7987 2 71.50123693446898 45.83616955911222 27.27098063528659 1 1 0
6904 2 27.441871963193652 46.22859871468652 26.37093569772358 1 1 0
6575 2 26.91599424044704 48.44626330656063 24.52914661401291 -2 1 0
2935 1 27.63711915925445 47.92043683055918 25.92510056135444 2 0 0
5119 2 26.67836524130601 48.80198142586403 27.278455924829725 0 1 0
4481 2 29.26401174466919 48.070353910973004 26.426459297408993 1 -1 0
6289 2 31.93133576945488 46.74250004707558 26.367023153713564 1 -1 -1
4929 2 32.200077642249695 49.319099976384685 26.35143627891801 0 0 0
1541 1 30.91660462216636 48.14402749258554 26.816045377509635 0 2 0
384 1 33.521063056390055 47.95612435529952 26.317760446366826 0 -2 0
6402 2 34.95643868247443 46.907771539289115 25.94205008225453 2 1 0
2493 1 36.16988920117602 48.242446464898634 26.03103882709653 -1 3 0
7985 2 34.82725725719633 49.41911566875885 25.969490681917758 2 1 0
7041 2 36.7238754670329 47.55664849033498 27.768242758196724 -1 -2 0
8690 2 37.47016210602217 48.94907718125672 25.245958506299026 2 0 0
2142 1 35.33397172519549 46.45723648930034 27.84206646529792 -4 1 0
4679 2 38.844107764162224 49.415253097227435 27.777385343256757 0 -4 0
9137 2 44.49899066338352 46.72039886703435 27.14028674842917 -1 1 0
1173 1 44.858407385651866 48.43066564060649 26.906174115058757 -2 -1 0
5497 2 43.56913851148674 49.75552281700394 27.14858324727849 3 1 0
9291 2 45.95039172569623 49.59245792641174 25.97146829012209 0 -2 0
9549 2 48.40940555560345 47.87102607474398 26.901750045012857 0 2 0
921 1 47.38142996375927 49.20053662627937 27.123962089460875 -3 -1 0
5943 2 53.04842247053549 47.93888136499648 27.76695710685831 -2 0 0
1620 1 52.65307438652926 46.05071829454122 27.863263695015405 0 -1 -1
8162 2 54.5630013570831 46.139709127008196 27.203305394403706 1 -2 1
9314 2 56.75897167445415 47.92397733142177 27.267450442341854 -3 0 0
7525 2 55.072413181693776 49.65359497968594 27.318989793073673 0 0 0
2604 1 57.933679753530015 47.08491405347885 26.22647507177172 -1 1 0
2363 1 54.88195860124943 47.79898176253214 27.655445682836735 -1 2 0
3347 1 56.82430905896771 49.81894865982649 27.59007922822387 -1 0 0
8075 2 59.30480863926846 46.56449394941807 27.197629931306466 2 3 0
5867 2 58.63091435590942 48.36849695179323 25.214763711852545 -1 4 -1
7611 2 61.242347390258494 48.62846491192601 26.507496464870815 1 0 0
2819 1 59.61728775460278 49.53415570751524 26.05271028758203 0 -2 0
1302 1 61.04579860545399 47.07495181524203 27.180657756287584 -2 -3 0
2788 1 65.28462699132415 49.5641538717538 27.492916449172714 -2 -2 1
5917 2 66.40975202315786 48.94771830476965 26.043616367048468 -1 2 0
7687 2 68.29105161178724 47.64578697570966 24.292527753200027 0 -2 0
9149 2 68.61890431226611 47.203074034575494 27.212548469214045 -1 1 1
1521 1 67.35242037376909 47.42922093814114 25.80437100530812 0 0 0
6039 2 70.290128817952 49.65907003778512 27.621954768836193 -2 2 -1
7474 2 70.44566979624456 49.766285796425976 24.64754058915287 1 0 0
3828 1 74.27690598000352 47.98221665786922 24.396523662595527 2 0 1
8823 2 74.14031725397106 46.21490237058335 24.762341552155934 -1 1 0
6479 2 71.27054455182613 46.89270746128876 24.74687840904293 -1 0 0
3916 1 72.72252385891258 46.45214831244127 26.0295225498054 -1 1 1
7502 2 73.21356292933324 48.206560916930705 25.990799388163477 -1 -1 0
3122 1 74.00153827050814 49.2596375140819 27.2149091472297 -2 0 0
8774 2 27.252491070737506 53.490747537233446 27.04635602437673 0 -2 0
465 1 25.961916093218477 52.47044715704641 27.65313278725351 2 -1 0
1323 1 32.641917152598204 50.57747337177798 27.55782612058586 3 1 0
3239 1 33.3233030175217 53.59995943797895 27.03843796199133 -1 -3 0
7799 2 31.718159802555302 54.091105407236874 26.618889023185083 1 -3 0
7549 2 33.58871631786726 51.85498759644178 26.74924879545068 0 0 0
8610 2 35.79855322271676 52.505971096662854 25.085462051813206 -1 0 0
955 1 35.138801559992494 51.128476708388945 25.98470357289129 1 0 -1
6034 2 36.5178772183463 50.8363977267912 27.22000057396957 -1 -1 0
6648 2 37.12780488969388 53.50820281594082 27.585094688888493 0 1 0
886 1 36.37565867170989 53.859732732869496 26.009863262874607 1 -1 0
345 1 38.10182263094995 50.14469079299305 26.324590800075423 -2 -3 0
5403 2 39.152085023991056 51.37864636196433 25.803889749229793 -2 0 0
935 1 40.282482617377305 52.3096730143371 26.680167676385796 1 1 0
7339 2 41.593542046237154 53.08350639525935 25.753495050384984 1 1 -1
5385 2 39.78102181532979 53.98748934193441 27.3106796681811 -1 0 0
5795 2 44.07239907407486 51.96672760122965 25.409369189092473 -1 1 0
3965 1 44.923573324690715 50.9502393387923 26.41843162539634 0 1 0
2313 1 43.28262264302417 53.31560214229005 26.032861065118496 2 -1 -1
4173 2 43.43752104285044 53.62610729456766 27.87420317659987 0 -1 0
8238 2 45.598252772197746 51.748136452875954 27.96424260157763 -1 0 0
7398 2 48.12455924960811 50.680971785778816 27.727884877707883 -1 -1 0
9388 2 47.950068836660236 53.58140814079119 27.989575341259734 2 -1 0
6814 2 50.45850866739987 52.33320862220902 27.786338204863597 0 0 0
9669 2 52.7962411486221 51.04206107691086 27.938247302567166 0 0 1
8349 2 56.37353684886146 51.8199110099241 27.667764764732254 0 1 1
1099 1 56.432523794762936 53.560355922962096 27.94250597400385 -1 1 0
8508 2 58.61689629818528 50.1023745099301 27.39411580294561 -1 0 0
2372 1 62.00122998928942 50.08047075553964 27.17918343867398 -1 1 0
5762 2 60.91424432795901 50.947069522456125 26.022236420615844 -1 2 0
556 1 61.14355314846402 52.74433453581163 26.17159013905273 2 -1 0
8141 2 59.818221653468136 53.63582986506505 25.684916556212755 -2 0 0
4525 2 62.838708050851125 52.94640104277615 25.496343267304457 -2 0 1
6729 2 65.57080586688441 51.4229760665449 25.12967244817477 2 1 0
6277 2 63.730663667705706 50.61087457304004 26.939275489163215 4 1 0
1515 1 64.4044660584724 52.16818919278727 26.029129121817515 0 4 0
7543 2 64.83851210489696 53.92235938646111 26.626132450985203 -2 -2 0
3348 1 67.00451277889101 50.452161332613436 25.04015407172155 1 1 0
4578 2 68.34928333032046 50.99765164900299 26.392393541252797 1 0 0
3165 1 70.0924257440229 50.7187701212886 26.08522652862278 -2 -1 1
9733 2 67.43860683661276 53.6399421741305 27.60742118029096 1 -2 0
3033 1 67.60781412604247 51.96457265340991 27.723405452098685 -1 0 0
6265 2 74.02592219486378 51.10003417404928 27.033536658305948 -2 2 1
4259 2 71.13706007840294 52.02090969910086 26.170490998776767 0 -2 0
2390 1 72.45700501539545 52.12076206833264 27.346654700950708 1 1 0
6401 2 73.62819809680178 53.44005942639139 27.906918501442505 0 2 0
553 1 27.3747844046749 55.35264654561457 27.35982414549663 0 3 0
8978 2 29.06845132066183 55.73047956809914 26.544487047264152 1 -1 -1
1770 1 25.85107533889316 57.912085597434555 27.524606161565497 -1 0 0
8357 2 27.725204246033325 57.57777748482517 27.665572790607055 1 -2 0
7705 2 25.750285655064157 56.02860707893332 27.205468203217684 2 1 0
2337 1 29.38429720168686 57.34737600839116 27.09913569428732 0 0 0
2115 1 30.497169092194163 55.00660437102014 27.398866439118382 1 0 1
4628 2 30.927508552660495 56.70251858371749 27.893955206948366 3 1 0
4851 2 33.549837323583695 56.6166634903802 27.408123992547527 0 -2 1
9148 2 34.84666296045955 54.4604329734761 26.781607940259857 -1 1 0
4825 2 37.43498449032219 55.3738639624643 26.005962772835566 -1 2 1
2894 1 34.92781684980839 55.85290758404233 27.944997242189103 2 0 0
2631 1 38.46437834653401 56.91390329286888 25.89140792790858 1 -1 0
8068 2 40.260772367553606 56.040654649095146 25.149513184328264 1 -2 0
36 1 41.063449711070824 54.90814247438016 26.200505814165805 1 2 0
4078 2 38.98268128913802 56.58647348861587 27.63968591418845 2 -2 0
1556 1 38.28194160641152 54.89145963751407 27.642073575934656 1 1 0
625 1 41.07103233395566 57.77122941298816 25.080829157310223 -1 2 0
9913 2 41.53387359393042 55.82698519784368 27.7859597845462 0 1 0
4541 2 43.067743525373004 55.01504718270129 25.539741697217956 -2 -1 0
6867 2 45.10118323393095 57.13215929707885 24.836403443125082 1 2 0
1101 1 44.64586595687844 55.81444218289111 25.957585442329286 2 -1 0
8501 2 44.409925879467316 56.422893070394956 27.68075995992063 2 0 0
6062 2 45.83268984821659 54.58548488914644 26.19583947565655 -2 1 0
2521 1 49.9696191822747 54.1613369709509 27.439513386210994 -1 3 0
4069 2 48.1979287690719 56.90875779303375 24.410997248431535 -2 0 0
3035 1 47.40987721528239 54.800220556276926 26.88620872520125 1 -2 -1
4171 2 49.002070210317896 54.857474865920636 26.128769282888047 0 -1 0
2537 1 49.589800581841644 56.44364374578976 25.48210341739573 0 4 0
4168 2 49.631866881990284 57.3748168824652 27.221047521113213 1 2 -1
1068 1 46.80356494637551 57.811946733313974 24.686208922687676 -3 0 0
5846 2 47.33037572533115 56.33412229335327 27.742683514915964 1 1 0
9072 2 51.75659708552581 54.15900057734388 27.01697085426677 -2 -1 0
7743 2 51.262740908017555 56.36836954049218 25.034416863238846 1 1 0
3530 1 52.388515852614844 55.688871689855624 26.185619672509127 -1 1 0
5163 2 52.324990948975284 56.81964587640645 27.668700486908858 -2 -1 -1
9725 2 54.09324135274228 55.581626583078986 25.87078112457156 -3 0 -1
9786 2 56.76736594768621 54.601030247292435 26.495572775383355 0 2 0
3723 1 55.640370310650496 56.08810571478898 26.286877119066702 2 0 -1
9336 2 56.607706285221035 57.315832162321364 25.70147556397425 0 -1 0
1009 1 58.19852674404807 57.76951596009266 26.20988007153065 -1 0 0
1977 1 58.60326719208354 54.55081460340664 26.432331737592833 -3 0 -1
7388 2 59.23802482815488 56.27774912124864 26.317140240427534 0 -2 0
3927 1 60.90016367075158 56.58506563355119 26.90408603929352 -2 1 0
6775 2 61.60519603490062 57.413812719517466 25.35232026946547 1 -1 1
6738 2 62.312738008634646 55.436811448293504 27.003888786381918 -1 1 0
5077 2 63.68603073902149 55.70283848907787 24.454810943783833 -2 -1 0
3880 1 63.116027580070636 57.36459468193897 24.401084617000034 0 3 0
2441 1 63.394627544884145 54.70285227606134 25.794590946027526 -2 1 0
1983 1 66.17500877052994 54.79806392903235 27.361708408998833 0 -1 0
2194 1 65.84392799550189 58.1628097748665 26.4640032979368 -3 4 0
8341 2 66.44479335517646 56.49230185093903 26.845161376549758 1 1 0
8956 2 70.23060286210678 57.83704312696422 26.599214195250486 -1 -1 0
3231 1 71.74670894795385 57.58198309724507 27.454365569807166 -1 2 0
7430 2 26.35078512386622 59.7269396234174 27.130186754740116 0 0 0
8740 2 29.122648372540834 61.0079801680833 27.3056089347888 -2 0 0
1688 1 28.06954533230401 59.55938486067925 27.670019175417693 -1 -1 0
4903 2 29.690777188973605 58.95701811930607 26.631870327004485 0 0 0
3918 1 30.791236009168568 60.18596464093435 27.283152642176503 0 2 0
6911 2 32.47995828322962 59.27003843589781 27.29380677519809 2 1 0
7201 2 31.849163005222493 61.660877160086635 27.086968310290192 0 1 0
172 1 33.43325297268849 60.75032749712752 27.623319655630215 1 -1 0
5894 2 37.184968876811524 58.284175012070534 26.21604415791931 -3 1 0
5059 2 36.9972553839594 60.969432784058796 25.342572039464663 1 -2 0
3454 1 36.04136761263048 61.47168426105514 26.77110346658192 -1 -1 0
6986 2 35.20457350152592 60.010085071999754 27.440045917098406 3 3 1
354 1 36.40818214441348 58.72004774895451 27.863785489040044 3 0 -1
5141 2 41.29332223460336 58.25112656375315 26.840213639028498 -1 4 0
9364 2 39.272196630949324 58.362163745786006 24.836110318312084 0 2 0
3919 1 38.14083999901781 59.67082979833221 25.494906856771753 3 -2 0
6274 2 39.29476222402552 60.53125766816607 26.62731269441842 4 0 0
3539 1 40.62303811953362 59.760642719339195 27.443907974022856 0 -1 1
3030 1 38.83458687092851 61.862829450203535 27.90209225099561 -2 0 0
5003 2 41.79018867597881 61.03891280004013 27.668829176528554 -2 1 0
4390 2 42.471206472205225 58.53969226954473 24.28295162706165 -3 1 0
5878 2 45.761696608080456 59.3968402007123 24.20699995130955 1 2 0
2381 1 44.16874669480914 58.699517613861154 24.689457840052892 2 2 0
6307 2 44.32188953480146 59.68625883164677 26.354436507709718 1 1 0
3815 1 43.51189002726979 60.666819241082045 27.601216308777953 1 0 0
1065 1 48.12192306966606 58.27565071720345 27.65179798712069 1 -1 0
3635 1 46.129304352969065 60.07528240385107 25.862166180874308 -2 0 0
7692 2 47.292590333276905 58.68944256068802 26.159338442790894 1 1 0
7372 2 46.57389509579187 61.614801888425916 26.424459794804932 -3 -1 0
5938 2 60.573861165295106 58.37094740261688 27.39488321663313 -1 1 0
3867 1 60.70770943390357 59.00344359964459 25.705428297386383 1 1 0
7244 2 59.037511075259744 58.968020002637374 25.244663755249164 0 0 0
5748 2 61.76230413369975 60.39850189227022 25.417620516246593 1 0 0
4844 2 61.34250614102457 62.155954124445834 27.690269334815376 2 -2 0
456 1 61.80006959735132 62.22402057334542 25.8732373332762 0 1 0
9949 2 64.31220705272194 58.37193062348128 25.64861081847752 -2 -1 0
513 1 63.456474393533334 59.8628218900086 24.781877431973463 0 -1 1
6216 2 64.12081258101263 61.39525258347188 25.07390608176677 0 0 0
3361 1 64.61205710464908 62.22427920311076 26.514518217891474 0 -2 0
4684 2 66.50988311471541 61.85804064510967 26.464952968849527 0 0 0
3062 1 68.85528302548725 58.509530454141654 27.360863479183983 -3 1 0
5697 2 67.25760510227643 59.23649806892652 26.58076201849776 0 0 -1
1503 1 67.56778842766008 60.80662309925219 27.580394405678224 0 -3 0