360
Lattice="16.27335368 0.0 0.0 0.0 16.27335368 0.0 0.0 0.0 36.27335368" Properties=species:S:1:pos:R:3:forces:R:3 step=0 confid=0 wdir=cand0 selection=->scf energy=-2526.07813567 free_energy=-2526.35815979 stress="0.022320710460837605 0.002482515290988323 -0.0028621096079346816 0.002482515290988323 0.022482099228245088 0.003103280422053204 -0.0028621096079346816 0.003103280422053204 0.020754557798625443" pbc="T T T"
Al       5.75048000       2.92345006       7.07180007       0.46561254       0.48769646       0.66137890
Al       1.84026992       6.48732004      10.11509999      -0.47659981       0.56629115      -0.15785738
Al      10.16360001      14.93180005       2.24246987      -0.40047773       3.00753198       1.54524590
Al       3.38786000       2.13225001       2.43491017       1.36688359       2.41927677       1.60197985
Al      15.87920004       1.71301002      13.70720015      -0.09050715       0.23291149      -0.31523738
Al       8.76186996      10.79350004      15.22330010      -0.34770171       0.92743154      -1.44317963
Al      13.92200005       7.46909001      17.66219997       0.86217442       3.90938723      -0.05820996
Al      11.66239997       7.63210003      15.46689997      -1.39546040       1.31389429       1.64577287
Al      10.94110001       6.17091007      10.78059995      -2.02296634       0.60492020       0.66794256
Al      15.07460003      12.98080004       3.01864999      -1.81522031      -0.62042185       3.47766387
Al      12.97120006      15.19229999       6.86071999       0.45625188      -2.41000461      -1.89990419
Al       0.81015394       3.03402993       6.01926995      -1.47188948       1.62376565      -0.58060251
Al      14.41180000       0.48637100       9.42184003       0.46154092       0.52968159      -1.01272884
Al      11.11300000       0.83571401       5.60044983       0.44931302       0.99715646       0.76797137
Al      15.49250007      11.57720002      11.88469990       1.55806288      -1.72491617      -0.19080046
Al       9.01618000       8.81611002      16.99680012       3.63216032      -0.72116446      -2.36832421
Al       4.79786001      10.53019994       1.91525992      -2.77594492       0.37966380       4.53122849
Al      14.64550001       3.23882993       7.53056006       0.37263510       0.41530628      -0.31450331
Al       4.75516003      13.46480001      12.35700000      -1.01897029      -0.07512259      -1.37235557
Al      10.29809993       7.15359996       7.70542011       0.04940221      -0.82949371      -1.97296671
Al       9.27063000       9.94594993       3.63999985      -0.39755111       0.30683826      -1.47486228
Al      12.65540001      13.96430002      14.66650013      -0.87638256       0.63437322      -1.55772901
Al       6.29401002       7.21121008      10.80779989       0.13959770      -0.79172286      -1.06293980
Al      12.84829995       1.30012005      11.90230009       0.61413200       0.72228061      -0.62653560
O       14.48219999       4.71713002       8.96976993       0.04118959      -1.03565487      -1.09819539
O        5.92815004      10.13390000       8.63916008       0.33979619       1.04211319      -0.33130398
O        5.87479996       6.41004993      18.05389996       0.72871625       0.43360038       1.51385373
O       15.62779999       7.17474003      14.14839984      -0.52876891       2.24581873       0.83623828
O        5.96069007      13.26260001      11.10319993       0.85482512      -0.75718627       0.27763290
O       11.67670002       1.74089002      17.27250010       0.20838449      -0.00871389       0.18902348
O       12.52149993       1.07717006       4.42265984       0.19705107      -0.40695839       1.23262316
O       15.81649994      16.17739997      14.32969986      -0.78937183      -0.14813828      -0.32998207
O       13.52180004      11.30360003       8.60125007       1.33945706      -0.20858048       0.76591665
O        4.79750004      15.86070000      15.38319993      -0.21099077       0.25726276      -0.46764889
O        4.80095992      12.80199999      13.98610016       0.09631198      -0.60349073       1.01085666
O       14.00720000      16.27049998      11.08549998      -0.79802374       0.51096633       0.47969981
O       15.69790007      10.89489996      16.55959993       0.99941319       0.59467161      -1.81457702
O       11.76649996       1.43185008      10.39970000       0.63604738      -0.23826956      -0.33410810
O        6.50703993       3.94161000       2.29036992      -0.12669296       1.04350094       1.41746410
O       11.42780005      15.31379994       6.03884015      -0.38867241       0.50643941       0.08420126
O       11.29060006       0.65292194      12.62469989       0.25958062      -0.42129382       0.43868633
O       16.26390000      14.84279994      11.73789982       0.21308562       0.31649474      -0.21567590
O        1.78647005      13.96999993       9.14163998      -0.50114024      -0.62190678       0.57182432
O        9.70717003      14.44670000       3.86349014      -1.19533660      -1.22999754      -0.23072475
O        5.65766005      11.40319995       6.00088009       1.08720823       0.21003603       0.49865672
O        6.66128008       5.01221995      15.55499997       0.76758642       0.15263512      -0.68895683
O        4.57928999      15.02450007      10.00230002      -0.39017662      -0.07602574      -1.56420789
O       11.43080004       7.88986995       6.31753994      -0.18628244       0.37417505      -0.22231443
O        7.90912003      15.86709998      16.26459999       0.69719477      -2.02542318       0.01184154
O        7.18787995       2.01255999       7.96961999      -1.75368251      -0.41533388       0.04445106
O        7.71820006      10.94490000      11.24769991       0.69003129       1.90548666       0.20440533
O        3.04954999       7.74673995      10.28609983       0.43527591       0.59482794       1.05667106
O       11.13739994      10.66479994       6.95810016       0.00644754       1.40388989       1.30754252
O        6.05615998       7.76572997       3.67290014      -1.67093387      -2.17677047      -0.14580079
O        0.52728205       2.23817995      15.16099989       0.36560468      -0.24310629       1.06462974
O       14.05640005       0.48147207      16.14610002      -0.91332194       0.49745453       2.91163327
O       11.81079994       3.49875998       8.76635005      -0.26211903      -0.18465319       0.41970405
O       11.29429997       5.57700003       7.08846986      -0.60338517      -0.70295409       0.54355520
O        0.06315542       8.19029998      11.85120001       0.46992069      -0.74182583       0.51849618
O       13.93789993       2.23157996       8.98310982      -0.32722590      -0.55239760       0.39783640
Al       2.43152008       5.08014004      17.58929996       1.09960335       0.13619947      -1.58623152
Al       0.54068006      14.77530002      14.68390009       1.38842288       0.12401888      -0.06775664
Al       6.69619993      10.53430001       7.14090009      -0.48112284      -0.14627889      -0.49739093
Al       5.82081002       1.12185994       4.16528009       1.24980671       1.41711779      -0.68950418
Al      10.15829995       0.99368596      11.09649988      -0.07594878      -0.27446148      -1.05825129
Al      13.13080000       3.89684005       9.86876003       0.28390258       0.54999641       0.13429938
Al      12.29200008      12.33759997      11.98600013       0.26901061      -0.55053800       0.15056315
Al       8.41684996      13.12349994       7.78784986      -0.42789304       1.28731978      -0.47470581
Al       3.58241998      15.48920000      14.12399984      -0.27148791       1.29485967       0.12862276
Al       9.66974995       5.38549000      13.60469999       0.43321682      -0.01297909      -0.88173138
Al       4.49736000       1.43808001      15.74690016      -1.80586511      -0.83286759       1.80885195
Al       3.63591994      11.98009994      15.28329985       2.48822939      -0.94456366       0.67720270
Al       4.07098007      10.28969995       8.95273996       0.34388625       0.84298016       0.24836329
Al       0.38173708      11.00750001      14.98799993       0.36236823       0.58781677      -0.26709704
Al      15.06800004       6.32880993       8.76251995      -0.10224442       0.10431330       0.67991542
Al       9.21333998       2.61398994      13.77479989      -0.72700547      -1.18221278      -1.42616306
Al      11.70129996       8.81717007       2.11963016      -0.79525833      -1.80005028       2.51210229
Al      12.76220008      11.49449997       6.97351996      -0.46725992      -0.21446112      -0.39179551
Al       9.20924007       8.59234002       9.99779015       0.03239418       0.41196114      -0.60556431
Al      10.63329994      16.25350003      14.11959988      -0.83469871      -0.84119996      -0.00838183
Al       6.58498002       4.95345003       9.27823998      -1.28854557      -1.02162678      -0.21390949
Al      16.12860008      15.16150006       5.27494001       0.25155844      -0.00420902       1.51570722
Al       6.52855005      12.53070007      14.61140018      -0.06812534      -0.49756019      -0.71964567
Al       7.39875999       6.68397002      15.28820002       0.09616513       0.94225341      -0.21769271
O       15.43990004      11.22180006       6.19905992      -0.07675643      -0.44493126      -0.38246940
O        3.31712006       6.34955992       2.68479005       0.97542812      -0.24375762       0.40929517
O        1.67244999      10.99639995       4.48962988      -1.52004393       1.37553013       0.54215329
O        3.86874997      11.85639999       8.04341994       0.07896683       0.47122125      -0.24421262
O       11.11970006       5.64078002       4.19534997      -0.36913725      -0.29067206      -0.31398691
O        9.43395003       0.42056302       5.35524994      -0.50410941      -0.97063286       0.06340724
O        6.76043004       9.08544997       6.05698010       0.78046038      -0.33209847       0.76892647
O        0.71503700       5.13705008       1.94104011      -0.07527190      -0.55892927       1.42111245
O        4.62351006      15.95480002       4.06205990      -0.12719917      -0.88183861      -0.60276301
O        9.10122992      11.65719998       3.17352996      -0.87244229       0.68313809       1.55709082
O        4.27267007      13.23030001       5.30551990       0.44984675      -0.01538790      -0.26725400
O       10.91630007       3.05143006       5.24797984      -0.02230670       0.52875343      -0.08579658
O        9.68964998      12.69219992      11.68680010       0.67327846      -0.18333870      -0.44727566
O        0.09225690       6.06830999       4.34892990      -1.21810952       0.48680291       0.35137009
O       15.70079998      10.59690002      13.39729984      -0.28290645       0.42882291       1.16401287
O       15.62320000       4.99915993      15.76180016      -0.21225817       0.13396404       0.39492725
O       15.14900001       6.89039002       7.11536002      -0.07381300       0.17492003      -1.09194802
O        0.29898805       6.98654992       9.46691982       0.60133853       0.10068891      -0.08900077
O       14.22750004       7.48324994       9.93098987      -0.89130392      -0.24918094       0.31503783
O       13.37809998       7.14210007      15.88299995       0.56597343      -0.45839266       0.49323465
O        3.78652006       1.47997006      12.28149992       0.49270581       1.27595399       0.35084481
O       12.04449994      15.82820000      15.08230013       1.52360828      -1.08693399       0.28913532
O        5.18571993       7.60486006      12.15879986      -0.83308277       0.79851280       0.23446889
O        6.87670999      13.85069997      15.61750004       0.27711590       0.41163383       0.00520213
O        0.09609253      15.37730003       7.23468013      -0.28172162      -1.52105083      -0.75057626
O        2.41260003       0.26716502       8.37220017      -0.13371349       0.74334656       0.03174892
O       13.70319992      14.75319999      13.40719992       0.42758988       0.65922555      -0.04453061
O        3.91943007       6.66746998       6.71052001      -0.79035855      -0.26676368      -0.26827649
O        4.84971001      10.01709996      10.74629987      -0.84692312      -0.76013430       0.35108189
O        9.37968995       8.86125003      11.91590006       0.39727478      -1.51804455      -0.62432515
O        6.88766993       5.60115994      11.02980007       0.60807439       0.84957515       0.50510780
O        8.04145006       3.92628002       9.80708009       0.27414000       0.33579131       0.79335434
O       11.84140003       7.47957005      11.66840008      -0.58990841       0.99265468       0.36883807
O        9.17195994       1.24843995       9.50364986       0.67513493       0.64338239      -0.30274589
O       15.79669999       3.54760005      13.41460005      -0.02713532       0.46662922       0.09725589
O        1.23616007       5.90311999      13.97750011       1.37638150      -0.32985883       0.47002647
Al       0.05754632      13.95719996       8.58550018      -0.45916983       1.77254786      -0.47538426
Al       0.72973900       4.12557994      14.76530004      -0.59982307      -0.94375240      -0.57749756
Al       8.78576006      15.82560000       9.07756999      -1.00353379       0.91849201       0.90277951
Al       3.79485007       8.73758995      11.53889985       0.80592480      -0.17961384      -1.18936381
Al       3.44779004       4.04641008       9.58882006       0.94722453       0.85154149      -0.57887535
Al      15.30919995      10.83560002       8.80457999       0.14637113       0.73670576      -1.10886682
Al       7.95315003       4.22187995      11.61080017       0.39097157      -0.23766357      -0.39669784
Al      14.28279999       4.02082006      12.71840013       0.46928073       1.83057403       1.00763008
Al       1.51732001       7.41873000      15.05289985       0.48990537      -0.51588071      -1.12551687
Al      13.97270000      16.00289998       3.81082993      -1.07891649      -0.11300337      -0.27002140
Al       0.49434201      12.05220001       5.34238995       2.10275172      -0.58740720       0.59501599
Al       8.71077993      14.27109993      15.70959990      -0.58584351      -0.91753532       1.48012332
Al       7.69936008      12.80730005      11.49929987       0.01726698      -1.50296206      -0.89599077
Al       8.41417999       8.44310002       6.39321994      -0.24450809      -0.43265610      -0.38329880
Al       4.18233001      13.31589996      17.64170009       5.20772441      -0.53169290      -2.51800383
Al       4.23147993       0.00751975      11.30930004      -1.30340677       0.82392324      -0.89150061
Al       5.93262000       0.91656898       8.81518995       0.54034616       1.68201559       0.21952465
Al      12.81119996      13.36470001      17.78780009      -2.81930356      -0.40221335      -0.73547743
Al       6.19237999      15.33629996      16.35750004      -0.32137832      -0.74746839       0.74083111
Al      15.10539995       5.79581008       5.67615994       1.70572310      -1.02061712       0.05420128
Al      14.92769997       1.34295005      17.34619994       5.16621439      -0.10191104       0.01653124
Al       5.90955008       4.91417006      17.17400017      -0.83992849       0.68836810       0.71881024
Al       8.26229004       4.88763001       6.51912983      -0.54929753       0.71704730       0.62631387
Al       4.72766994       7.10323003      13.84229989      -1.09415372       0.03155474      -0.76123036
O       14.59600004       3.03300992      17.54470006      -2.34347377       0.94033207       0.96750018
O        8.18558998      11.28669999       7.62019007       1.01148203       0.01819131       0.36480096
O        4.31981999      10.18399996      14.85609986      -0.82083802      -0.62379210      -0.19359534
O        5.07110996       1.99240999       2.81898005      -1.64943210      -0.46913870      -0.82794987
O        1.85945002       1.74513004       6.47753009       0.71043106      -0.57152195       0.05200459
O       13.54450006       6.07446002       4.93682012      -0.86362197       0.17785687      -0.43955911
O        5.06377003       5.03611997       4.63846997       0.80287418       0.13884073      -0.79013298
O        9.31421997       3.75038003       7.35520995       1.19309969      -0.05830299       0.14503039
O        7.95035996       7.31889997      16.86419998       0.99151971       0.56738790       1.81791047
O        0.31804594       2.99107007       4.11488987       0.90634972      -1.71984567      -0.32634586
O        5.88565006       9.19883994      17.31430006       1.53764942      -1.42977719       2.33352208
O        5.92613003       7.73398001      14.94350014       0.74701108      -0.22781324      -0.21727367
O       13.82299996      14.28579998       2.96295008       1.70339678      -1.15969992      -0.45912774
O        3.15738993       7.92131007      14.05179991      -1.06534985      -0.25512751       0.43309935
O        9.18814997       2.17907008      11.99580010      -0.37565957       0.74817685       1.44577858
O        2.36324994       2.86745003       9.02637015      -0.26740970      -0.35266890       0.37467197
O        8.43754007       2.20018004      17.18519993       1.07706475       1.27343638       3.27723845
O        7.61082994       1.98629007       3.51349000      -0.35318315       0.60087631       1.31448152
O       13.26260001       3.26989999       6.35083017      -0.36203005       0.12447769       0.26713690
O       10.02180003      10.27729998       9.91543984      -0.56953364      -0.74137990      -0.23578136
O       15.72179993       9.23015996       8.26187005      -0.33335611       0.41837132       0.87758143
O        1.90446000      14.97619994       4.90582998      -0.16334872       1.03357195       0.72754309
O        2.85119002      14.42770004       2.21222007       0.64965468       1.22127165       0.44116496
O        3.53243996       4.06081004      11.43960010       0.54050243      -0.14301216      -0.95513246
O        8.15610006      13.62870002       9.91367986      -0.94688642       0.29280824      -0.26250855
O       10.04239998      12.76190000       8.60623004       0.61276644      -0.92818676      -0.50559555
O        4.29424007      12.19879998       2.75246016       0.95685519      -0.64024254      -1.49780157
O       12.24400003       4.31131993      16.64370006       0.37370002      -0.62906100       2.32381290
O        6.09067007       1.23870994      16.76689997       0.16220792       0.15136749       0.59082433
O        6.04187002       2.54498002       5.33531012      -0.24515411      -0.38161249      -0.46202723
O        9.24297002      13.92860003      17.42650007      -0.08428985      -1.87591805       0.85721850
O        7.38873007       8.51432003      10.18590013       0.08555547      -1.14431861       0.64910937
O        8.64430995       6.65496000       6.64696003       0.95080113       0.29483248       0.29186851
O        3.83966997      14.40500002       7.43004007       0.85443690      -0.31157223      -0.44681907
O        0.16718902      12.21839993       8.61084002      -0.98213300      -1.40081674       0.21216084
O        2.85128001      13.35519995      16.36420009       0.08824454       0.72194344       1.89885879
Al       9.69635997      10.61129999      11.70900012      -0.51310810       1.54982020      -0.07427194
Al      11.73859995       4.52430998      15.07709998       1.05058897       1.31956668      -2.29239313
Al      14.46360004       6.06526004      14.87790015      -0.99043954      -0.83266396      -0.12872618
Al       5.33619004      11.99039999       4.28598003      -1.64335018       1.11116017       0.07179606
Al       8.62966995       2.76286997       8.67063991      -0.75315131      -1.52143903      -0.22088099
Al       9.60602008      12.85400002      13.51820001       0.17139232      -0.92385566       1.36360514
Al      12.87010006       5.64104007       3.17764989       0.42782542      -1.15715591      -0.69929812
Al       9.88200997      10.94629999       8.24741004      -0.03454552      -0.80040891      -0.37462753
Al       2.84132007      14.01179999       6.05253008      -0.20318614      -0.76910045      -0.99801643
Al      12.69290000       2.84650004       4.71047984      -0.10719435       0.03894177      -0.39354229
Al      13.46189994       6.78767001      11.44300000       0.84041313       0.20411217      -0.98889903
Al       5.53073000       9.09199007       4.72211995      -0.00850338      -1.28143693      -1.07658254
Al      12.18180002       1.65625995       8.64551009      -0.37757772      -0.14591460       0.45654720
Al       4.98231994       6.30085996       3.32383985       0.04927375       0.82199356       1.11479439
Al      14.69230006      10.29980001      17.95369990      -1.31374576      -0.73209576      -1.79236920
Al       2.87787002      15.60729996       3.54971003       1.02050995      -3.38711222       0.25406992
Al       2.63901999       7.75648996      18.21449987      -0.09187774      -0.03841672       0.22048215
Al       9.67680005      14.86220005       5.87872993       0.59155827       0.75647709       0.95487758
Al      16.11919994       7.73635006       3.68914988       3.51214860      -1.29426980       0.55444230
Al       5.83845994       9.50333001      15.62049985      -0.92633542       1.40995134      -0.45587113
Al       9.45676999       8.41029001      13.61419998      -0.81798036       0.98942988       1.24839540
Al      15.49219999       8.83488996      13.30519998      -0.54306017      -0.16328097      -0.60824097
Al       3.73643003       4.96134001       5.91294006       0.25699165       0.57237753       0.39071433
Al       3.04452999       8.26411998       6.46646999       0.76554100      -0.03618656      -0.38014004
O        2.32876996      15.83970005      11.18619989       0.76436479      -1.62391517      -0.47642481
O        4.79688995       2.98745999      14.91580000       1.09873191       0.23886627      -0.74425302
O        1.51541001       8.27762003       3.25434989      -3.52141515      -0.58217610       0.42416161
O        7.47422995       2.10808002      14.58820011      -0.28673487       1.30782643      -1.04603915
O       13.18720003       9.37055002      17.64590018       1.06577270      -1.65566406       0.45581429
O        0.83827592      12.24789994      11.80679997       0.04203158       0.76472875      -0.01053141
O       13.01910003      10.24359998       5.60466008      -0.18199857       0.79279693       0.24552385
O        2.80120007       0.87882505      14.61279997      -0.31284611      -0.58007277      -0.60052935
O        9.62962995       0.41152805       2.48364015       0.92289330      -2.39717306      -1.65521956
O        9.40669004       9.50874008       5.35830017      -0.32172609      -0.57347792      -0.20206779
O        8.71534005       9.00291006      15.20979988       0.15941899       0.29125007      -1.04467452
O       12.43020007       5.39512008      10.66380012       1.75976494      -0.87929960      -0.30852230
O       10.97720000       6.16692000      14.78370006      -0.17640032      -1.93118681      -0.14100186
O        2.61120996       9.81476001      12.26849991       0.06692787       0.77941691       1.34055755
O        8.42490007       8.78778007       2.54799997       1.31922988       0.76949930       0.28399816
O       11.71660000      10.62360004      12.00630015       0.30518080       0.77190313      -0.65141609
O       14.15439997      15.28979999       5.47967008       0.89638081       0.36553422       0.53494012
O       15.81660002       1.92916995       7.23417992       0.58860902       0.26795442      -0.68487391
O        4.07667998       3.74276004       7.12734002       0.50169193      -0.48552924      -0.25539957
O        2.01842995       4.48538005      15.98830005      -0.78063660      -0.61520711      -0.24864494
O        2.14084999       7.12111998      16.68340016      -0.26759887      -0.21607458       0.09206812
O        5.69632000      10.39259995       3.52879989       1.02662519       0.18713559      -0.45444439
O        4.20263004       4.77826006      16.76469999      -0.06875254       0.70127455       2.38880972
O       10.36900001       3.49206007       2.51608993      -0.25471732       0.36904571       0.84155402
O       12.92769993      13.33360000       7.34977004       0.02303617       0.40369851       0.41751574
O        0.02098872      13.49039995      17.95999985       1.75176722       0.42117905      -1.45964921
O        3.72688994       8.84079003       8.03870984      -0.36175224      -1.49687499      -0.78466274
O        4.78826003       1.40373005       7.52433011       0.26595290      -1.00303379       0.65940029
O        5.26999996       3.71699997       9.60546009      -0.72253062       0.53777135       0.53537823
O        9.02133003      13.17709997       5.91037009      -1.10831589       0.27813653      -0.31866652
O        9.98590996      15.37419995      10.44779991      -0.23599746       0.68113180      -0.41130254
O       14.19669995      12.68990001      11.83600002      -1.98942261       0.64655891      -0.19386814
O       13.32509994       4.79044994      14.09070018       0.08803998       0.49686378       0.62614673
O       11.14829999       9.62340994       3.63941984       0.58787488      -0.46515691      -1.29658872
O       13.16050001      16.25210003       8.19103000       0.35608287       0.47568506       1.43093034
O       13.67819998      13.68750004      16.09160003      -0.90248987       0.33866898      -0.69376021
Al       2.03774007      12.27370004       8.42410008       0.98860885      -0.94931976      -0.41461579
Al      13.98280006       0.02184795      14.45459990      -0.55775566      -0.68411254      -1.52634086
Al       2.68158001       9.66578006      14.15189985       1.39894414       1.17386541      -0.59936246
Al       3.15871002      15.06280006       8.87730009       0.31605850       0.54769521       1.08648592
Al      15.40700004       4.66625008      17.47590003      -0.01720152       0.36145711       0.06081219
Al       2.32991007       1.87842996      13.14639995       0.95267218      -1.77466861      -0.34661102
Al       1.65887996      14.00209993      11.97349997       0.12689295       0.59761439      -0.84464049
Al       5.03491005      12.84960003       6.99726015      -1.57869805       0.41989192       0.11692926
Al      11.87870002       6.30647996       5.62030986       0.46169656       0.17779701       0.38137368
Al       0.71843407       0.18983404      10.99639993       0.93665089      -0.35649000       2.48324946
Al      15.21950008      12.79300001      16.50810011       1.47515740      -0.48750032       2.21328301
Al       6.61399004      10.11190006      10.28579985      -1.45200329      -0.50111049      -0.64281737
Al      12.14179995       9.04568994      12.59290013       0.32206255      -1.30606764      -0.26766216
Al      10.19059995      13.62699994      10.16609996      -0.96938289       0.00389831       0.48054649
Al       9.98268995       4.18119006       4.15664993       1.21389935      -0.35727163      -1.50881543
Al       2.42515004       9.64745008       3.80489017       1.31155586      -0.90533712      -0.84813967
Al       3.10972007       1.92947996       7.77035014       0.44503422       0.08360001      -0.71063108
Al       2.60145995       4.88432001      12.67249983       0.46366188       1.31035650      -0.80239270
Al      10.02949993       1.99360006      17.88239991      -0.09555786       0.61528139       0.55609660
Al       0.76785201       0.72591607       7.76045985      -0.28687912       0.21745684       0.17521408
Al       8.56513000       0.48576905       3.87132010       0.34008325       2.29543137      -1.74380742
Al       4.97789001       2.84275001      11.40950011      -0.75967042      -0.86681967      -1.05048609
Al      15.66840006       8.50265008      10.13499991       0.82620680       0.52919311       0.02200574
Al       3.65235993       4.33412004      15.17730005      -0.22375470      -1.20761180      -0.59417340
O       16.08720002      13.54630006       4.52633018      -0.58045078      -2.08859707      -1.47618681
O       11.40239995      12.32229992      18.05829992       0.53081045      -0.00119130       0.39052073
O        9.28733997       8.77941003       7.94551997      -0.28992729       0.26477397       0.14462388
O        9.72750001      14.58220008      14.15479991       0.22875748       2.52627553       0.34317976
O        4.81700008      11.77729994      16.77580000      -1.84976465       2.32572373       0.71949575
O       15.78959993       4.30378993       6.44444988      -0.53745295       0.09808232       0.23907644
O       14.71410000      14.08690005       9.52091997       0.06881121       0.22376337       0.12194748
O        2.65667007       3.69071004       2.61792991      -0.81896180      -0.46472124       0.06197147
O       13.86360002       8.56530005      12.67189987      -0.99879501       0.01249472       0.20077409
O        1.24534996      15.47789995      16.22519987       0.36314979       0.33038723      -0.34602975
O        1.62244002      12.81899994       6.67465002      -0.20168736      -0.05755339      -0.83893001
O        8.62697004       6.83085005      13.93160017      -0.91698966      -0.29498131       0.52775480
O        6.91871998      10.85439997      15.09129991       0.17831479       0.20045114      -0.16545969
O       10.57460000       3.73843002      14.06080005       0.11637941       0.50194718       0.63171466
O       12.97060007       3.74696003       3.23446992      -0.36922084       1.50298347       0.12636128
O        2.13862998      11.42069999      14.58259986      -0.98734109      -0.91519786      -0.02887533
O        2.91341997       5.67710996       9.02109999       0.05954926      -1.18651107      -0.01051002