360
Lattice="16.25341839 0.0 0.0 0.0 16.25341839 0.0 0.0 0.0 36.25341839" Properties=species:S:1:pos:R:3:forces:R:3 step=0 confid=0 wdir=cand0 selection=->scf energy=-2595.45332614 free_energy=-2595.48069424 stress="0.017687487192173616 -0.0014639249565562007 -0.0012648245790705275 -0.0014639249565562007 0.01577616218577642 -0.0008973889278711912 -0.0012648245790705275 -0.0008973889278711912 0.013759911244362105" pbc="T T T"
Al       5.20327997       2.45351007       6.74655017       0.57705139       0.07710118      -2.98711601
Al       1.81911005       6.30936995      10.32779987       0.56455233      -0.40332007      -1.13658918
Al       8.41134995      16.21420003       3.43406989       1.08545857       1.01888278      -0.39098320
Al       2.50128000       2.63788998       2.56995009      -1.51098986      -1.50234786       1.56491626
Al      15.76750002       1.45593994      12.74840002      -0.27512435      -0.05961637      -1.07455088
Al       8.89480999      10.06820001      15.00819993       0.94504190       1.21854099      -0.28179608
Al      13.37529996       8.57423992      15.93969998       1.44404644       0.95519678       0.26523453
Al      11.66260006       7.03750993      15.02790004       0.11655011      -1.83133513      -0.15607262
Al      10.18260002       5.99314003      10.74530004       0.40737600       0.46870227      -1.66970089
Al      14.66860006      12.90760004       4.70341989       0.29671901       2.05069494      -0.95830435
Al      12.95919993      14.51590001       6.15155000      -1.05913387       0.86917468      -1.67382724
Al       0.91333403       4.25803999       5.10567006       1.44004993      -0.62585672      -0.77440200
Al      13.97630001       0.00133294       7.86818018       0.13169485       1.14769158      -0.20957515
Al      11.20110001       0.85136495       5.41632995       1.54786777      -0.06264428       0.36744257
Al      15.33160008      11.55020003      11.81820002       0.03365146       0.95318686      -1.64021878
Al       9.72197993       8.34717007      17.02510014       1.48340145       2.30711930      -1.14932214
Al       3.16856995      10.61179998       4.28549012      -0.73831164       1.25389464      -1.88481444
Al      14.96439992       3.11627002       7.20421985       0.13640885       0.58540245      -0.12399838
Al       4.74660003      13.17669993      12.39840009       0.73001797      -0.16963363       0.59720002
Al      10.07510008       6.79509995       7.59214012       0.25812076       0.19799644      -2.82378943
Al       8.66113996       9.68800996       3.57643997       0.78785056       1.08991604      -1.16007009
Al      13.79069995      13.14209997      13.91160001      -0.59591003       0.48696477      -0.18592735
Al       6.17197997       7.28645005      10.76540002      -1.05492903       1.63287140      -0.49458998
Al      12.93569993       1.39547007      10.85659985       0.21997699      -0.97220658      -0.49611982
O       14.33489999       4.23499996       8.63415001       0.49881067       0.26107734       0.23561726
O        6.01763994      10.59760002       8.73860010      -0.43770920      -0.33194414       0.55492775
O        6.49776999       5.81069996      18.08479988      -0.98576646      -1.81721901      -0.19103001
O       16.12960001       5.74428995      13.93339991      -0.75588700      -0.79150197       1.71312467
O        6.04787000      13.28960007      11.29159990      -1.10164841       0.29520201      -0.40579098
O       12.32680006       0.83027207      17.81680011       0.57803933       0.73990805      -0.25557479
O       12.62439999       1.49697998       4.38217001      -0.89946520      -0.21241510       0.07493733
O       16.08039994       0.31214706      14.17369990       0.47806691       0.09811292       0.41620177
O       13.49300006      11.82309996       8.47661985       0.71110939      -0.04682422       1.65256296
O        5.56560003       0.15087203      15.63029989       0.65170747       1.16135566      -0.52546613
O        5.21726994      11.95399996      13.64299988      -1.00803555       0.33905814       0.31023325
O       13.14949999      15.93090002      11.56239989       0.03031109       0.61862457      -0.87211890
O        0.11122604      10.55800003      16.01720000       0.22126199       0.88966583      -0.85350786
O       11.18599993       1.73679998      10.88039985       0.90856576       0.09948681      -0.61941550
O        6.76023994       5.44439992       2.49128996      -0.63349040       1.05050936       0.63782888
O       11.24250007      14.94330006       5.77932999       0.63442064       0.44357014      -0.15407939
O       11.12310002       0.14636496      13.24349990      -0.09180527      -0.09475761      -0.27014759
O        0.30965395      14.76380007      11.98980014      -1.45601882       0.69229099       0.09211675
O        1.71776008      14.03080000       9.32358997      -1.05086676      -1.15262133       0.60888768
O        8.80893993      14.53080000       3.61581009       0.11350131      -0.36306916       0.31742721
O        5.73357993      12.15659995       6.34844993      -0.41618952      -0.58520081       0.41933096
O        6.58463996       5.84766998      15.33120013       0.96640939      -0.71537014      -0.96302400
O        4.77872995      15.16000006      10.10730006      -0.28632179       0.75546782       1.16758193
O       11.07159992       8.00140997       6.78039998       0.61772742       0.09093518       0.10910391
O        8.04290998      15.60880002      17.03699996      -2.29384437      -0.06035132       0.46645063
O        6.71996998       2.14715003       7.77963012      -0.16002403      -0.41033244       1.37360790
O        7.62229004      11.11100000      11.40110009       0.62092575      -0.31160926      -0.59525425
O        2.67451007       7.82527005      10.11559992       0.15735051       0.49809855       0.95222386
O       11.11069996      10.90240005       7.06778990      -0.41405400       0.03790607       0.30788316
O        6.53615000       8.25433006       3.66089992       0.16041928       1.14337564      -0.01241164
O       15.89170003       3.14352001      15.64299983       0.93782421      -0.18426021      -1.58215147
O       14.21159993       1.12115999      16.15369992      -0.11315212       0.23911598       0.29400669
O       11.50910001       3.65168005       8.66595985       0.05623987      -0.62974002       0.29286371
O       11.01859996       5.60318997       6.69962991       0.29772893      -1.25360029       0.17402548
O       15.73420001       7.84672992      11.68629993      -0.07132908       0.01468125      -0.11829047
O       12.95359998       1.03113003       9.00205007      -0.88920163       0.75014195       1.82928790
Al       2.12871996       5.98511994      17.55890018       1.48870090      -0.97719046      -0.24655117
Al      16.11380006      14.59300005      13.86160002       1.69632089      -0.00709883       0.19308982
Al       6.66238997      10.89939999       7.13368991      -1.02384112      -0.08781771      -0.02097723
Al       5.50520997       1.74633001       3.96534996       1.10519567      -0.01592585       0.63268922
Al      10.10709997       0.62073203      11.74349985       0.55328311       0.64208128       0.86437430
Al      12.86869992       4.08335004       9.62045000      -0.25267377       0.54443467       0.42983496
Al      11.95880008      12.39689992      11.98449989       1.33767719      -1.29992809       0.68769479
Al       8.37294003      13.41700005       7.58342988      -0.71047388      -1.85339300       0.22716666
Al       4.40541998      15.84799995      14.45020001       0.76609661       0.29037028      -1.00776631
Al       9.59114008       4.89634993      13.48590004       0.08315440      -0.02247896       0.41014086
Al       5.81526993       2.00310997      16.14689987      -0.83571183      -1.45960670      -0.49227207
Al       3.82511004      11.49229999      14.93880001       0.27253040      -1.79871432      -0.96541479
Al       4.08765996      10.54959994       8.95285998       0.99088863       0.96923970      -1.37796763
Al       0.34786801      11.34750007      14.48560002       0.24223692       0.26589161       1.24058490
Al      15.24230006       5.80163006       8.82242997      -0.41240654      -0.74348608      -1.58697002
Al       8.74065006       2.38088996      13.89780014      -0.66237157      -1.36168705       0.63749090
Al      10.92160005       7.68876002       2.91462982      -1.11104906       1.39432598      -0.89003620
Al      12.85649994      11.44000007       6.93656013      -2.12907638      -0.87851162      -1.44584571
Al       9.11978997       8.51520003       9.76140003      -0.33179622      -0.70088581      -0.47886215
Al      10.68380002      15.83610001      14.92509985       0.46604558       0.30823532      -1.89546193
Al       6.14377996       5.14154006       9.30621008      -0.02763523      -0.34834943      -0.23863701
Al       1.92512005      13.63899997       5.14551003       0.44987517      -0.74317623       0.12186408
Al       6.72478002      12.11819995      14.55629999       1.44446048      -0.18925315      -1.47942105
Al       7.51915008       7.25836999      14.70960010       1.65860684      -2.01876387       0.72070198
O       15.47459993      10.71969992       6.67709007      -0.35883326      -0.71577055      -0.41461579
O        4.14331995       6.88049004       2.71465017      -3.41893472       0.28367283      -0.01622346
O        2.18920007      10.42480001       5.80965018      -1.36626598      -0.69908715      -0.08265053
O        3.89504996      12.32979996       8.29349984      -0.78390860      -0.47119367       0.89772151
O       10.51210005       6.26569003       3.97480993      -0.22558442      -0.33140797       0.36233796
O        9.61550997       0.42182903       4.77647996      -0.80468275      -0.72149074       1.01639867
O        6.71538002       9.35700000       6.18247018      -0.89717545       0.65282235      -0.29941639
O        2.53205000       4.51983007       1.88678016       0.16048084      -1.64254965      -0.26626925
O        4.60773001       0.99002806       5.57396997       0.19747847       0.40000499       1.40325763
O        8.34546005      11.41500003       3.28581987       0.33431981      -1.75072617       0.86093284
O        5.00602003      14.40079996       5.63858008      -0.69852709      -0.18009173      -0.10642313
O       11.06230004       3.57840997       4.96432016      -0.92653571       0.73702766      -0.12432154
O        9.93532994      12.58969992      11.83679983       0.74996625       0.70351490       1.01802403
O       15.99950001       5.53228995       4.65103008       2.05430791       0.58831751      -1.08965183
O       15.96209992      10.54129996      13.04850001      -0.34357722      -2.66463866       0.68974764
O       15.38359996       5.57281005      16.66169986       0.47163327      -0.03454755       0.45539729
O       15.26259993       6.37718002       7.07088014      -0.42161353      -0.60386284       1.51943105
O        0.19285494       5.71096004      10.11710008      -0.84025851       0.55670637       0.41822212
O       14.08510007       6.81183999       9.68359983       0.48489561       0.58213209      -0.61673655
O       13.42279992       6.81916996      15.37419994       0.06494170      -0.72207005      -0.57352726
O        4.10744996       0.85237201      13.14889987      -0.95705700       1.20758595       0.98860948
O       12.45759994      15.79640006      15.18629993      -0.37796989      -0.40583254       0.41936181
O        4.96168006       7.95118999      12.00680009       0.78521455      -1.04385219       0.00561065
O        6.68973992      13.41120002      15.74960010       0.82291181       0.31827044       0.13428623
O       15.76259994      15.35950005       7.82600984      -0.58699746      -0.37432510       0.42849654
O        2.14150002       0.37060898       9.62817017      -0.44560019      -0.38314905       1.98899801
O       14.36439995      14.91019997      13.44260005      -0.84201522      -0.52826022      -0.46746807
O        3.85249006       6.82253994       6.79246005      -0.85629814       0.27985028      -0.10856869
O        4.69629002      10.20469996      10.73570014      -1.07579789      -1.24276369      -0.02596404
O        9.85142005       7.66349002      11.29399988       0.43851683       0.33984773       1.93294068
O        6.91183996       5.76443005      10.89749987       0.32787894       1.00451910       0.38797271
O        7.55900005       3.66706993       9.93946993      -0.16561310      -0.64761089      -0.60056138
O       13.15939995       8.41119993      11.37730008       0.45058614      -1.99199601      -1.33958662
O        9.45724003       1.60652997       8.90697004      -1.70316879      -1.21509576       0.62142136
O       15.91080007       3.29790994      12.97480008      -1.34004473      -0.52659927      -0.49555368
O        1.62633005       4.24216008      17.26420013      -0.02251392      -0.61634452      -0.49732103
Al      16.21416866      13.98429994       8.83601992      -0.75048259      -0.59932240      -0.38166510
Al       0.70465005       3.67908998      14.31430008       0.58420180       1.14592061       0.07760787
Al       8.87720006      16.14120008       9.10523998      -0.94344101      -0.10775236      -0.98629656
Al       3.64485004       8.78282995      11.23270006      -0.95774016       1.08230230      -0.23302846
Al       3.41102007       4.03905005       8.59532985      -0.52461752       1.56797782      -0.63735017
Al      15.04119993      10.79860003       8.57469985       1.11791990       0.30190300      -0.50040456
Al       7.66128996       4.31002997      11.56909988       0.43701553      -1.03171514      -0.85060962
Al      14.00960001       3.66976003      12.70479984       0.95054274      -0.17300551       0.21983672
Al       1.32665992       6.69450006      14.59079983       1.05530622       0.36477589      -0.55843361
Al      14.08569998       0.28392008       4.48578011       0.49777945      -0.17305603       0.71018534
Al       0.63707403      11.43810004       6.00580002       2.77208079       1.56072107       0.45181569
Al       8.34681006      14.12959997      16.21330018       1.00497528      -1.41916275      -0.75588932
Al       7.65211994      12.85649994      11.69409985       0.90036277      -0.80869791       0.75059048
Al       8.35195004       8.70994995       6.45103985      -0.07437484      -1.24896403      -0.15193893
Al       5.20019003      13.01140006      16.67120007      -0.75927303       0.95952398      -0.40398306
Al       4.34880997      16.09380007      11.61909987       0.14281412      -0.10321832       0.41597368
Al       5.79023999       1.20629003       9.13023998       0.08910481       0.44300003      -0.26123655
Al      13.14910000      11.98710004      16.88489983      -0.79870194      -0.07182985       0.06855132
Al       6.17123995      15.79709993      17.22810006      -0.87539286      -1.41803958      -0.20457508
Al      14.61329992       5.40281002       5.60518017      -2.95451665      -0.00824636       1.33375043
Al      15.84430002       1.20981995      15.66679983       0.83342852       0.27756738       1.46752553
Al       5.59743008       5.30563002      16.67870017       0.03968537       0.33537496       0.63965568
Al       7.81081003       5.22196994       6.66580003       2.09552879       0.68394058      -1.48287444
Al       4.68670001       7.43961999      13.73410001       1.84194327       1.37297206      -0.53350170
O       14.75300000       3.18955002      18.02749990      -0.08143756       0.22208463      -0.11911235
O        8.24035001      11.46139997       7.40592009      -0.10381337       1.17828418       0.23941550
O        4.12122002       9.36689995      14.76140007       0.24104538       0.50405056       0.23178924
O        3.84380001       1.74501998       3.27812001       0.77075705      -0.05919756      -0.32931889
O        1.92040997       0.70719501       7.03869000       2.12396734       0.72587599       0.49918102
O       13.30279996       6.35821992       4.95394008      -0.26532421       0.25424874      -0.20032391
O        5.52356008       5.80635006       4.78641992      -0.28318315      -0.70743894      -0.13975428
O        9.03866997       4.00634996       7.40837010      -0.33517731      -0.57971409       0.68340420
O        8.81840998       7.56692001      18.17699994      -0.62787584      -0.79036865       0.97604539
O        1.13152999       2.95791004       3.86469996      -0.47547059       0.70266077       0.36139006
O        6.14103005       8.48013003      17.15819985      -0.04409714       0.44993077      -0.96911587
O        6.22714992       8.22071994      14.31910003      -1.28478768       0.11804395      -0.39513901
O       14.19220002      14.70889992       4.61292012      -0.76365843      -1.54984695       0.38424589
O        2.97660992       7.31427996      13.77130000      -2.29886298       0.07358958       0.95211254
O        8.70552008       1.39418003      12.51579990       0.25098994      -0.63690821      -0.39204667
O        2.05444996       3.09593001       9.00570006       0.19708584      -0.16757141       0.33077093
O        9.48515999       1.83688008      18.30850015      -1.27224813       0.79983535      -0.80508283
O        6.60033995       2.81822995       2.86664009       1.05100487      -0.38115208      -0.20358140
O       13.77539996       3.74768006       5.98727996       0.90753941       0.26305013      -0.50075529
O        9.79000000      10.13879999      10.03480011       0.55623843       1.06460688       1.06642867
O       15.12090003       8.88531994       8.41336996      -0.11593379       0.70963913       0.98608396
O        2.48424008      15.34329994       5.02777016      -0.44754287      -0.17849817      -1.41981152
O        4.40341999      15.23389997       2.87937990      -1.80219348       0.93673460      -0.14588966
O        3.44406994       3.52754002      12.31190016      -1.59004794      -0.02798612       1.47854168
O        8.22183997      14.13739999      10.64780010      -0.23727827      -0.30845294      -0.31675723
O        9.74545003      12.78620001       8.85169989      -0.17929166      -0.12864360      -0.00464247
O        3.12685994      12.50940007       4.34498996       0.31379781       0.10864218       0.56671537
O       11.94849996       3.05062994      16.59180000      -0.55831381       0.14220617      -0.23022073
O        6.42519994       1.23478000      17.69540010       1.38696407       1.44523965      -0.28072700
O        5.84686999       3.10580006       5.12027004       0.13411217       0.27808232       0.70586385
O        9.18857996      13.06320003      17.23989983      -1.48581336       0.89404201      -0.16915130
O        7.36753998       8.60281993      10.38639990      -0.72533845      -1.46137845       0.53925180
O        8.43674006       6.95518994       6.77904012       0.11321940      -1.02758418      -0.07095470
O        3.76365001      15.05850006       7.78717989       0.86672103      -0.65012224      -0.66618757
O        0.05078023      12.13330003       8.56538018       0.52822048       1.09430161       0.90480115
O        3.66053004      13.15010007      15.48809985      -0.31682937       1.23233637       1.38059321
Al       9.62473004      10.84560004      11.70939988      -0.71064321      -2.55907525      -0.91327864
Al      11.72979998       3.79550996      14.96890014      -2.23018915      -0.36412428       0.09151745
Al      14.59249993       5.45559007      15.10010017      -1.05810159       0.60944331      -1.21752862
Al       4.99047006      12.48739993       4.74034001       0.45094998       1.38924643      -0.20249447
Al       8.23675004       2.83856997       8.51694996      -0.56514257       0.93458927      -1.08368057
Al       9.97541006      12.99690006      13.80560009      -0.87802422       0.72902007       0.62696282
Al      13.44979994       6.08269003       2.78396018       0.09933473       0.36007931       0.46453599
Al       9.64380993      10.89880008       8.24071015       1.29790844       0.23536439       0.45661392
Al       3.58438993      16.01689995       6.30028001      -0.26545633      -0.65039591      -0.65883384
Al      12.78009994       3.29457994       4.39034008      -0.59323064      -0.30209560      -0.13023374
Al      13.22529992       6.54444997      11.12869988       0.95281613       1.37757356       1.55426794
Al       5.58636004       9.24259999       4.71102006       0.64888680      -0.58107089       0.79501338
Al      11.21219995       1.85045997       8.83867984       0.71987281      -0.33531922      -1.23868102
Al       5.80650999       6.73511996       3.19738002       1.65731607      -1.01374340      -0.04381176
Al      15.06360006      10.35369992      17.04520012       1.37685158       0.41745036       0.07899373
Al       3.06472994       0.00358160       3.37229008       0.22244440       0.32559759      -0.18719894
Al      16.15439996       7.12396007      17.29590012      -0.61272483       1.26952390       0.75491082
Al       9.52038992      14.89900007       5.61320994      -0.11606394       0.17922271      -1.22483616
Al      16.08910007       7.18767006       3.79814992       0.62679286       0.39027707       0.64049523
Al       5.82991004       9.48148005      15.67249996      -1.56422883      -0.18470363       0.99355255
Al       9.70884002       7.99723008      13.02339996       0.77404889       2.28177489      -1.35145668
Al      15.52309997       8.79460003      13.18129991       0.37727035       0.99144371       0.80819803
Al       4.10089008       5.41122994       5.79865995       1.34718000      -0.40628431       0.72616188
Al       2.82652992       8.64937996       6.44179016      -0.04009468       0.10827706       0.95717078
O        2.65575005      15.20230007      11.49880015       0.55872590       1.37902983      -0.00208219
O        5.32860000       3.62323998      15.41760000       0.12430450      -0.15980509       1.07012290
O        1.60582002       7.30462007       3.35281003      -0.80863902      -2.18584199       0.05533950
O        7.65704002       2.04656007      15.38749987      -0.04548322      -0.36311869       1.27958071
O       13.48100000      10.30109996      16.31190005      -1.69544507       0.59286934      -0.22062002
O        0.79997797      12.24140005      11.63509995      -0.54315174      -0.04708660      -0.37264342
O       13.13189998       9.90598001       6.07415983      -1.03160664      -0.06584849       0.34143584
O        2.22618992       2.45667997      14.65090002      -1.24453889       0.49164182       2.74942922
O        8.84063003       1.02924008       2.12268985      -0.63618368      -0.75018973       0.16465185
O        9.36263002       9.38868002       5.20262004      -0.41788677       0.63855805       0.55357305
O        8.81180004       8.22073993      15.44940005       0.32375146      -0.23430754      -0.44920004
O       11.91709998       5.50629001      10.84120012      -0.53055151      -0.56069220      -0.85358518
O       10.95030001       5.43261993      14.65739989      -0.29876967       0.35801842       0.36296061
O        2.38786007       9.69679006      12.32609990       1.43288927      -0.30589498      -2.17379459
O        9.56850004       8.77648007       2.45677997       0.56177519      -0.96021618       0.14809982
O       11.61469993      10.66060006      12.25219984      -0.31596653      -0.46366283      -0.15598415
O       13.39630002      12.75550006       5.95545997      -0.65235954       0.83985996       0.73944326
O       15.25549995       1.50689001       7.77065993      -0.73916472      -0.16824837       0.33416759
O        4.15033005       3.91883001       6.93346010      -1.16074663       0.90006106       1.00573811
O        0.98312198       6.64573006      18.64659989      -0.95087214       0.06822191       0.42614905
O        1.42809003       7.04298002      16.30859990       0.27945519      -0.32463418      -0.85839498
O        4.98530993      10.79529994       4.27459996      -0.29599469      -0.52657777      -0.10105858
O        3.84128999       5.32523993      16.89589984      -0.89929860      -0.21163300       0.02221578
O        9.39041995       3.87249997       2.45292006      -0.16194199       0.05335453       0.49232095
O       13.01329992      14.60290001       7.98936013       0.52063949       0.12589126       0.83954797
O        0.54655500      13.97260008      16.11209985      -0.31627679       0.39501595       0.81785794
O        3.78989002       9.06861007       7.95055012      -0.22109546       0.19718854       0.35795414
O        4.32231999       1.63866005       8.18528992      -0.01680870      -0.54753348       0.66322204
O        4.74350002       4.11012999       9.82396002       0.22145867      -0.30537714      -0.06096223
O        8.62682997      13.30479994       5.75294004       0.09969332       1.26797822       0.83590475
O       10.05889997      15.64269993      10.42469982       0.34107187      -0.36865011      -0.18188921
O       13.79179998      12.36360008      12.27419987       0.45555133      -0.40198324      -0.21475643
O       13.29550006       4.10145992      14.40419986       3.20373490       1.07801977      -1.00996696
O       11.61579996       8.51777993       4.37248999       0.90183499      -0.39223790      -0.29120137
O       13.28570006       0.12783704       6.22435013       0.94851449      -0.57569726       0.91305804
O       13.84979998      13.10449997      15.66989986      -0.59439637       0.12124683       0.70733959
Al       1.97178995      12.38349995       8.53519993       1.50218699      -0.22271361      -1.45805007
Al      13.02240005       0.00680417      13.34719990      -1.25777280      -0.28606614       0.81445875
Al       2.45762007       9.22438007      14.01310015      -0.85839209      -0.68532667       0.63714135
Al       3.13383005      15.12050003       9.39915007      -0.98294546      -0.14659033      -0.23541179
Al      16.11289995       3.95015003      17.20670003      -1.31236690      -0.19892694       1.13049994
Al       2.81942003       2.03282008      13.10579999       0.27171335      -0.56043788      -1.78590051
Al       1.81139992      13.72150004      12.06019992      -0.20618494      -0.08840801       0.53565505
Al       4.94794998      13.50739994       7.36891006       0.89899647       0.56346232      -0.79348221
Al      11.59280008       6.88291993       5.29888011       0.70418209      -0.74899073       1.07619275
Al       1.15630004       0.08240337      11.24690016       1.40568235      -0.00165958      -1.86902072
Al      15.24790001      13.60750003      16.88189986      -0.94473025       0.03781847       0.63249382
Al       6.47010000      10.11040006      10.39129991       0.68919688       2.30080909      -0.56687127
Al      12.52470006       9.20109006      12.74689985      -0.32613158       1.11340119       0.57798769
Al      10.12199997      13.75849998      10.32260005      -1.85696480       0.13935764      -1.40162673
Al       9.81972994       4.64282001       3.92915999      -0.22879729      -0.19636196       0.89220488
Al       3.02453004       8.26600002       3.20216982       0.86530396       2.11298167      -1.27256284
Al       2.55262000       1.58140999       8.46861002      -0.88445998      -0.79597200      -1.05282360
Al       3.11410994       5.17273996      13.07300007       0.17017937       0.67578827      -1.24717017
Al      10.90330000       1.66667006      17.22270012       0.05678645      -0.38081814       0.67203174
Al       0.23266200       0.55979406       6.91574016      -0.51970919      -0.81174466      -0.31093874
Al       8.27224003       2.60974995       2.23654009      -0.58787467       0.38035282       0.37276837
Al       4.80066004       3.18679994      11.30679987       0.98392987      -1.60491677      -1.78048474
Al      14.69699998       8.57128992      10.17150015      -0.33238286       0.08993142       0.33961038
Al       3.06767994       3.72209994      16.12160006       0.55931894       1.19550247       0.30814062
O        0.22121293      12.86279993       4.96314990       0.33094049       0.22435598      -0.53912991
O       11.62780003      12.11349995      17.59120016       0.74845365      -0.30280841      -0.29368279
O        8.97214002       9.08890002       8.05636007       0.22145360       0.64359347       0.44806345
O        9.44373003      14.61359996      14.71200008       0.40738279      -1.19526910       0.85963227
O        5.05456005      11.30920003      16.25640005       0.26069028      -1.22742563       0.66621186
O        0.25708162       3.68302997       6.58156014      -0.71257708       0.16994995       0.36445031
O       14.75830008      13.94680005      10.05999986      -0.05473686       0.67567474       0.31343298
O        2.49216005       3.21653996       0.93631885      -0.09287243       1.95639373       0.10510185
O       13.87390006       9.03368001      13.94600015       0.13675294      -0.34905419       0.35402806
O        3.08091997      15.77509995      15.58680014      -2.27315593       0.72205150       0.55211110
O        1.77904001      12.93519997       6.80116993      -0.60058994      -0.88255449       0.53204524
O        8.77108003       6.63220997      13.51710010      -0.90756925      -1.39050049       0.67934330
O        7.17083006      10.48040003      15.11499997       0.95682138       0.98584820      -0.40174870
O       10.36849996       3.08468004      13.99900011       0.64399659       1.46106438       1.01048167
O       13.21610000       4.36075006       3.11590989       0.55087347       0.18131251       0.08824244
O        2.13575005      10.92350007      14.60559992       0.33130178       1.01174914      -0.58428767
O        2.68064005       5.64708996       8.99600010       0.75444718      -0.57866730      -0.64067751