360
Lattice="16.23448972 0.0 0.0 0.0 16.23448972 0.0 0.0 0.0 36.23448972" Properties=species:S:1:pos:R:3:forces:R:3 step=0 confid=0 wdir=cand0 selection=->scf energy=-2590.11952054 free_energy=-2590.14181761 stress="0.013581768100657084 0.0008458280768841439 -0.0007894110509292486 0.0008458280768841439 0.012004825866449194 -0.00022045646866550506 -0.0007894110509292486 -0.00022045646866550506 0.016249128567985657" pbc="T T T"
Al       5.74456006       3.16496004       7.38855016       1.49754291      -1.76040388      -1.13487616
Al       1.93262006       6.64788003      10.53150009      -0.74673663       1.29342146       1.84806393
Al       8.72235007       0.13382398       3.36825997      -0.46981498       1.54436042      -0.07534054
Al       2.43546000       2.63050002       3.32409013       1.98649774      -0.43334670      -2.28163327
Al      16.11210001       1.82292994      13.87999994       1.04873388      -0.41649371      -1.40821888
Al       8.45930004      11.19450002      15.24310013      -1.34944768       0.92850448       1.22603297
Al      14.13930008       9.05375997      15.90760009       0.80278452      -0.81631600      -2.10365331
Al      11.66639994       7.25196994      15.58669984      -0.61916860      -0.42601520      -0.90925640
Al      10.85019993       6.14811003      10.80199997      -0.44414606      -1.03761872      -1.53094871
Al      14.23610001      13.69179994       4.72076013       0.55567183       0.16789135      -0.33144500
Al      12.69580004      15.13169999       6.81253990      -2.00981106      -0.61962520       2.61638013
Al       1.25052001       3.11964000       6.12967014      -1.26551210       1.12726220       0.43448830
Al      14.35640002       0.17386603       9.39422990       0.45797897      -0.88543740      -1.56081828
Al      10.95569993       1.18801999       5.45534991       0.71778980       1.38296603       0.37035426
Al      15.52459997      11.76899997      11.00050012       2.03632275      -2.19340067      -1.59741254
Al       9.28451993       8.84620007      17.18850017      -1.41546532       0.47510992       0.70609155
Al       4.51373995      10.03179999      17.90079995       0.92631245      -0.35720840       1.41980047
Al      14.67380004       2.98092002       7.47113001      -0.33877916       2.65308497      -0.57438095
Al       4.75969004      13.37320003      12.57869984       0.35829147      -1.14471503       0.59532853
Al      10.05999994       6.22553004       7.69881015       1.07876251      -1.49874326      -0.99901819
Al       9.89622008      10.15300003       3.72007005       0.98731645      -0.73213774       0.41624189
Al      12.86370005      13.59709995      14.50240013       3.60117678      -0.54057859       0.05000960
Al       6.42953994       7.47863994      11.03889998      -0.71358666      -2.81545343       0.55875179
Al      13.15009999       1.20375998      11.76259985       1.20666648       0.04434592       0.50841631
O       14.59680002       4.58541993       8.70111013      -1.31673033      -2.63818347       0.81173883
O        5.94838002      10.42640004       8.75109017       2.10335641       0.25678056       1.24662695
O        5.07354997       6.95055001      17.01839990      -1.52083935      -2.99161941      -0.57209540
O       16.12189996       6.63547996      14.36040006       0.06123891      -0.04625723      -1.64340376
O        5.77005000      13.10929996      11.19720013       1.60073305       0.74815349      -1.78720292
O       11.59860001       0.54237092      17.20579997      -2.09498805      -0.45458506       1.57375926
O       12.46610003       1.10555008       4.34878012      -1.05699075      -0.77382062       0.82716423
O       16.04320003       0.10607193      14.85060017       1.92659370      -0.03549786       0.28588808
O       13.60059994      11.55299992       8.70909983       0.81218173      -0.86533126      -0.07024928
O        5.68512008      15.93440005      15.79100004      -0.55085968       2.18337756      -2.56598571
O        4.14523002      12.63169994      14.26470007       0.64699341      -0.32431180       0.66290895
O       14.06220006      15.96370005      11.13939996      -1.33814752       0.11685450       0.18357619
O       16.13150007      11.92619999      15.94949984       0.26764386      -2.34064904       0.53366240
O       11.87530000       1.26326003      10.55550000      -0.15036573       0.60818951      -0.14929278
O        5.94305998       5.03543999       2.83362007      -0.56470127       0.85815366       1.72089412
O       11.23389999      15.55069999       5.98777008      -0.47732539       0.18815536      -0.48643928
O       12.31589999       0.40948205      13.22110002       1.00380270      -0.07066362       0.66435263
O        0.08696264      14.94889996      12.13330006       1.08828543      -0.65109938      -0.13462870
O        1.54058002      13.76030008       9.42223988       0.55843153       0.25656604      -0.13350837
O        9.14994007      14.74539998       3.60181010       1.28219376      -0.27999377       0.42438069
O        5.81103007      11.72869996       6.41911994       0.41362250      -0.42370002       0.39374392
O        7.03788994       5.17737001      15.85660005      -2.53477920      -2.38927395       0.22515955
O        4.67828998      15.30509993      10.04170001       0.11442956       0.29769297       2.32008326
O       10.98169995       7.98734004       7.62626001      -1.37173000       0.52868417       1.37886601
O        6.96682005      15.22969997      18.31670015       0.32969532      -0.36923663      -0.72595429
O        7.19413992       2.14998007       8.16087997       0.37844873       1.00242478       0.99896703
O        7.74138006      11.23180006      11.61809996       0.05961587       0.42595141      -1.06754636
O        3.13511001       7.96425005      10.58379986      -0.59939978      -1.56740728      -0.98061101
O       10.99020000      11.08620006       7.19603994      -0.40526158      -0.47288505       0.55750685
O        5.93269994       8.03064003       3.42962018      -0.46590810       0.14882565       1.35757810
O       15.53380005       2.52570006      15.54940006       0.38653130      -1.03582892       0.42618323
O       13.84169997       0.34382798      15.91999990      -0.24268036       0.08981438       0.59313999
O       11.93540008       3.40690004       8.81798991      -0.87352675      -0.59641097       0.26885885
O       11.51709995       5.55138993       6.79226996      -0.63156825      -0.28637005       0.73458433
O        0.40360208       7.90799998      11.75210018      -0.66609806       0.64935140      -1.41906012
O       14.05370000       2.04859000       8.91865983      -2.34560391      -1.07201529       2.19996131
Al       2.42333007       4.94904003      16.86229991      -0.07014396      -2.38630353       0.47587291
Al       1.11620007      15.12679993      15.31880014      -1.83657705       0.07980843       0.01135681
Al       6.84818993      10.51139993       7.25949994      -0.88105466      -0.31780753      -1.49103348
Al       5.69331996       1.40434002       4.42090994       1.26493025      -0.13184928      -0.49525631
Al      10.15250001       1.01901993      10.89420008       1.57781127      -0.20665602      -0.40568536
Al      13.22500008       3.73304997       9.85441009       2.63509309       0.49855427      -0.60097935
Al      12.21289995      11.91720008      11.58960009       1.09835970       0.83958016       0.14808957
Al       8.28294007      13.50850006       7.59030996      -0.20908233       0.03621631      -1.18755484
Al       4.08589004      15.92139996      14.49529998       1.67881685      -1.19196519       2.29279662
Al       9.83258007       5.28638997      13.82650008       1.71743558       1.34863649       0.51480824
Al       4.95674005       2.48332999      17.31440017      -2.67178002       1.15234619      -1.77570557
Al       2.51658001      12.53200004      14.99670017      -0.45320819      -0.18089477      -0.77808551
Al       4.18673999      10.48100004       9.10070009      -1.02278941       0.00446882       0.12048812
Al       0.26017604      10.18699992      15.27059994      -0.19609503       1.21474972      -0.46400616
Al      15.37660003       6.06350999       8.76688986      -0.41043361       0.72683447      -1.13547933
Al       9.59011001       2.02153993      14.05320007      -0.29476059       0.50664128       0.37485329
Al      12.78590000       8.66278995       3.33193997      -3.26848435      -0.01348578       0.29255956
Al      12.70580000      11.75690008       6.88462008      -1.70213395       1.02919188       1.52540283
Al       9.84810008       8.46611008       9.16282992      -0.12324046      -0.86333940      -2.50515321
Al      10.75760003      15.94250008      13.51189992      -0.18452844      -1.35472421      -2.62328850
Al       6.64028001       5.17110999       9.59089984      -1.27897788       1.43805148       0.82552438
Al       0.67889097      15.02479993       5.36976006      -0.14437132      -0.54098397      -0.18720644
Al       5.84666007      12.48030001      14.88890003      -1.12789991       2.25951860      -1.69620748
Al       7.73214004       6.69191998      15.58090015       0.14902048       2.54233114      -0.33103942
O       15.51630008      10.80860003       6.28774999       1.22260221       0.44678436       1.14614368
O        3.61314998       6.30262000       4.49468010      -0.94435872       0.02204224      -1.20197591
O        1.91390997      11.28719993       4.76892011       0.79540448      -2.38673179      -0.42041959
O        3.72211993      11.91149999       8.14564989      -1.24350551       0.25333743       0.64927704
O       11.35490002       5.79705006       4.04498001      -0.16326511      -0.16797766      -1.14492337
O        9.22490007       0.77171994       5.11796985       0.70146439      -1.49079277      -1.05954160
O        6.76555995       9.10095997       6.11537998       0.59086783       0.10906407      -0.95859868
O        3.15935995       9.21936995      17.30489985      -1.44993167      -0.50014507      -1.06636494
O        5.09420007      16.04489994       5.29200990       0.16462629       0.00369486       0.31861736
O        9.03997997      11.60250002       3.55708985       0.19214779       0.41496695       0.24953897
O        4.32842001      13.37340004       5.58112997       0.68436911      -1.08445367      -0.28538278
O       10.90390005       3.09611996       5.21449998      -0.25196807       1.39801534       0.34886188
O       10.42519999      11.93010001      11.88640005      -1.27595551      -0.84978346      -0.69021689
O        0.26743400       6.08683002       4.16233990      -0.60904716       0.96747236       1.11357093
O       14.96550005       9.67838002      14.22829998       0.70684293       0.08081891       2.44087991
O       15.38040003       5.03903999      16.09039983      -2.04773701      -0.98128451       0.76948363
O       15.78269994       6.56843006       7.10854017      -0.03628605       0.26882856       0.97278011
O        0.53873294       6.77116003       9.47820985       0.22463107       0.94843059       1.13469218
O       14.31330004       7.23222993       9.70030010      -0.07270786       0.02185747       1.30927329
O       13.46669998       7.34041998      15.48149989       0.54317595       1.00106425       1.60070751
O        3.97058994       1.03227003      13.49820002      -1.32392680       1.95964338      -1.17355323
O       11.30989996      14.14290008      14.82950010      -3.38089332       0.74193609       1.45036781
O        5.15572993       7.67305997      12.34759989       0.13570100       0.09817858      -0.38688510
O        5.57023996      13.17250002      16.40979997      -0.25084581       1.30493760       2.57441740
O        0.43179002      15.41539997       7.21924994       1.25424120       1.31185036      -2.27576316
O        2.28262997       0.29594696       9.27374986       0.16508971       2.60028481      -1.19163001
O       14.14850001      14.67670001      13.78550003      -1.01269083      -1.78305631      -0.04079446
O        4.12222007       6.80175994       7.08165997      -1.24502804       1.68618575       0.47099646
O        4.87418004      10.09880005      10.80709998       0.57191053      -0.12506913       1.21011379
O        9.78634002       9.24784005      12.47379990       1.15614163      -0.88019626       1.64789412
O        7.25805008       5.99164007      11.39790007      -1.22335397       0.53497633      -0.54509163
O        7.80251005       3.94389995      10.16209997       1.19326524      -0.43418984       1.92840403
O       11.60020008       7.73763996      10.91779997       0.35909752      -0.35659595       0.73114207
O        9.36794995       1.86474999       9.63224013      -0.94219870      -0.75512891      -0.74848204
O       15.98019998       3.63017006      13.43559986       2.01657156      -0.00880236       1.86837090
O        1.91574999       5.03657007      15.10710014       0.54708595       1.90141404      -0.34287289
Al       0.13524304      14.06890003       8.17143001      -0.36050555      -1.75794330       2.55900320
Al       0.44685595       4.05882000      15.27409983      -0.37534469      -1.70793837      -0.85920205
Al       8.70258004       0.18256203       8.91532988       2.13241085      -0.78223353      -1.60755511
Al       3.99772004       8.85794004      11.70729986       0.28454671       0.24290352      -0.94438700
Al       3.61855006       4.38432006       9.17851982      -0.64452777       0.32781645      -0.17320558
Al      15.10420006      10.71159992       8.14910992      -0.11583300       0.56917158      -0.52250480
Al       8.03948993       4.57625995      11.90760013      -0.50646909      -0.04594635      -0.21584753
Al      14.47919997       3.94501996      12.70179999      -1.01055173       0.39514472      -0.78522740
Al       1.41643001       7.04307004      15.31499987       1.18509048      -1.85151710      -1.54855488
Al      13.87019994      16.15029993       4.07228994       0.48590671       1.44049049      -0.09807542
Al       0.65693398      11.90880003       5.63674991      -1.98025743       1.39062090       1.37494444
Al       8.71559993      14.67589997      18.68229999      -0.17889332      -0.67005011       0.28092408
Al       7.45591003      13.02129993      11.92559997      -2.59254743      -1.87819731       1.24983176
Al       8.49922000       8.36229003       6.39226982      -0.22031694       0.96313893      -1.38904826
Al       4.01158998      13.03309997      17.80549998       0.36818533       0.50440836      -1.59304724
Al       4.27621005      16.20830008      11.73289989      -0.52511643      -0.39367138      -1.75345585
Al       6.12388996       1.28755998       9.36089996      -1.84499514       0.72440463       0.05851138
Al      12.82899997      11.54200008      17.14379986      -0.52921739       0.15444289      -0.18206988
Al       5.76338006      14.84289994      17.12270015       1.61038771      -0.85685832      -0.04309398
Al      15.40590003       5.67022997       5.68109006       0.87262561      -1.61465358      -2.35659834
Al      15.49849994       0.82717907      16.46600003       0.09995435       0.26579794       0.82395117
Al       5.17954008       5.32374001      16.17699990       0.94659651       0.11969826      -1.68853977
Al       7.44030998       5.38775001       6.30341017      -0.18314959       0.42985186      -0.90892951
Al       4.87090993       7.42667999      14.04750003      -2.13070570      -2.54045106      -0.22808701
O       14.53210005       1.96207997      17.81770013      -1.05903452       0.43752715      -0.91445246
O        8.16800004      11.57760004       7.44808016       1.09230933       0.78435883       1.18811204
O        4.38991999       9.06971994      14.53439989       1.92849599       1.95626242       1.04399947
O        4.05418002       1.67082008       3.53713008      -0.16962613       0.20538539       1.02203275
O        1.98220002       2.03295001       7.36593984       1.70468140       0.24160159      -0.11094132
O       13.76539998       5.83014001       5.14655995      -0.37238410       0.08528268      -0.68319801
O        5.84393998       5.76581994       5.47049013       0.62951014      -1.49556380       0.59661426
O        9.62254993       4.30476002       7.77506998       0.31753338      -0.28169589       0.60791960
O        7.87163992       7.57253000      17.23999989      -0.41106643      -0.06932903       0.19397559
O        1.28817997       2.33501997       4.58622002      -0.68242866      -0.94065033       0.58420942
O        6.01401996       9.65137005      17.00020004       0.28724472      -0.91354547      -1.21360122
O        6.38144997       7.73468999      14.83900006       2.05384921       0.10460990       0.72499289
O       13.70810002      14.56709999       3.31857016       0.01018002       0.04514022       0.08433132
O        2.85807997       7.25437995      14.11109989      -0.13177679      -0.10790173       0.06227737
O        9.84792004       1.28886994      12.55489994       0.05912471      -1.73077371      -0.59006559
O        2.66131000       3.12484997       9.88123992       0.59872813      -0.13820589      -0.62713738
O        8.26978997       1.01645001      16.72039985       0.99272732      -0.76043450       0.57323182
O        7.15987005       2.52630999       3.37237983      -2.00928762       0.73389861       0.21367618
O       13.35180005       3.00801993       6.36411997      -1.56932954       0.19844698      -0.81004364
O       10.05900006      10.10759996       9.86172982      -0.72168556       0.55742883      -0.40954498
O       15.56079996       9.02005993       8.39578998       1.22345443       0.29874230      -0.94126415
O        2.39723005      15.39090002       4.89131986      -0.90041797       0.19007282       0.76459705
O        4.36292998      15.05449996       2.98122018      -0.22591000       0.03159942      -0.40475758
O        3.42701993       3.68198000      12.64810012       0.02690997      -1.40824800       1.15675863
O        8.13190996      14.08619999      10.83709996      -0.16036094       0.24258508      -0.21479352
O        9.54316993      13.04160003       8.93269997      -0.22029638      -0.54806517       0.48887506
O        8.91457000       0.09398292      19.31260002       1.07789797       0.07665558       0.00703916
O       12.73829998       3.13437994      16.20430005       0.67610685      -0.40695047       0.88500096
O        6.23152998       1.77895006      18.04300003       1.29183267      -0.74162307       2.25673729
O        6.13867000       2.73824995       5.68013999      -1.53592202       0.69963788      -0.50345565
O        9.51764006      14.69779997      16.90159983       0.06875700       1.42622211       0.99089947
O        7.44601998       8.74524996      10.99890000       1.57628821       3.48582742      -0.76729518
O        8.71124000       6.56316002       6.50137984       0.45931868       2.33354561       0.72153083
O        3.75176996      14.76639994       7.68597988      -0.10154926      -1.25503766      -0.51545890
O       16.19769993      11.53440007       9.34887011      -0.02830192       0.73930229      -0.65090470
O        2.52535994      13.16200004      16.67460018       0.55313777      -0.39278125       0.44711732
Al       9.36114997      10.51380004      11.44270003      -0.11685377       1.42668680      -0.51101039
Al      11.98820000       4.05960997      14.87779995       1.90979626       0.51827111       0.88011454
Al      14.52160007       6.13982995      14.81249997      -0.33311681      -2.11997802       0.43655214
Al       5.47052999      12.21329996       4.72220987       1.00555957       0.21633547      -0.35836236
Al       8.63922007       3.20516995       8.74240005      -0.88608577       0.44845531      -0.71813537
Al      10.64580008      13.02499994      13.34609995      -1.97820061       0.67835793      -1.31283696
Al      13.09519998       5.63982001       3.32148016       0.99209738      -2.69562787       1.14672383
Al       9.63814998      11.31369997       8.37202994       1.91739275       0.08829520      -1.39578082
Al       3.78220005      14.94139995       5.89884013       0.54275626       2.17606663       0.04567576
Al      13.32290006       2.66599008       4.51194004       0.63340677      -0.01339567       0.17291288
Al      13.47389997       6.63207007      11.13749982       0.60683099      -0.46157120      -0.97643606
Al       5.63444006       9.37959998       4.54050006       1.03138505      -1.30983753      -1.19032683
Al      12.11340006       1.53651003       8.68083983       0.50247239      -0.47254496      -0.94634400
Al       5.30796999       6.46713999       3.78283000       0.37619409      -1.10788880      -0.91598815
Al      15.88990001      11.04840000      17.82110001       1.07315629      -0.22644259      -0.30581569
Al       3.14219993       0.01051021       3.36645984       0.66475356      -0.02912008      -0.63609874
Al       3.54903998       7.61490997      17.81150005       0.31693802       1.71463803       0.20687974
Al       9.53139002      15.28379995       5.69164987      -1.08425569      -1.27140109       0.65658459
Al      15.61450008       8.07775008       3.75836012       0.28037670      -0.61536465      -0.24916588
Al       5.99422005       9.45904005      15.19620002      -0.32355539      -1.19834418       1.82942535
Al       9.58197004       8.63572998      14.11029983       0.56736884      -1.77130627       0.13322081
Al      14.41910005       9.40652001      12.61489990      -0.35611865      -0.11140114      -2.18561145
Al       4.02439996       5.35845000       6.07549994       0.17967982       0.59214649      -0.92487542
Al       3.40963994       8.41774997       6.55043011       0.76851471      -1.13431982       1.43594362
O        2.39969996      15.27120004      11.43860010       1.15342791       1.15708916       1.14490590
O        5.77636992       2.65605993      15.66259987      -0.18591896       0.55140780      -0.11342247
O        0.98422503       8.76949000       3.54902985      -0.41091933      -0.14483957      -0.58175712
O        7.82592003       1.92033996      14.36949999       0.26790465       0.79309493       0.06926003
O       15.52680007       9.51121997      16.88129982       1.02751218       0.79870603       0.77164024
O        0.71612704      12.04810007      12.00730005       1.76664612       0.67639312       0.24967089
O       13.02800007      10.00720003       6.59396005       1.83449069       0.29979715      -0.59344023
O        2.70293994      15.93179993      15.73560004      -0.15645839      -1.06178415      -0.37636024
O        9.23728000       1.17154994       2.08193015       0.05083512      -1.29242216      -0.09974754
O        9.83809996       9.27044008       5.37723016      -1.20402915      -0.17338169       0.01127734
O        8.65483002       9.45092004      15.43960013       1.12939189       0.67327777      -0.69719296
O       12.44370001       5.19195005      10.63220008      -0.92276672       2.23159919       1.17539588
O       11.09469995       5.53120997      15.22939987       0.18285244       1.11850940      -0.18059986
O        2.76433001       9.70366004      12.57549997      -0.29879194       0.62562413       0.18083107
O       11.20690008       9.33079001       2.87686992      -0.23217439       0.68157654       0.39609190
O       12.73170002      10.28440004      12.29020011       0.00508176      -1.34101578      -0.86986368
O       13.94840002      15.30589996       5.74545990       1.87300044      -1.01770760      -1.19028472
O       15.82120004       1.84613000       7.24628015       3.37785104      -3.25171041      -0.28930764
O        4.36050001       4.24857002       7.53857001      -0.52185049      -0.22782774       0.27122659
O        1.20720997       3.69336995      17.14170007       0.53314581      -0.30327049      -0.13512081
O        2.16366006       6.57354003      17.37119991       0.40098088       0.42184240      -0.75439856
O        5.75874998      10.84480002       3.67788984      -0.59125545       1.22902952       1.03043760
O        4.07476000       4.18802998      17.09030000       0.85777965       0.95425999      -0.01177848
O        9.57616004       3.93793004       2.60292015       0.63500412       1.37201673       0.83468254
O       12.62099995      13.46319998       7.58766013      -0.76761555       0.89142109      -1.90814770
O        0.98393395      11.89919993      18.59449983      -1.25926924       0.33845699      -0.35387281
O        3.82170992       8.91823007       8.31599982      -0.62333211       0.77745123      -1.80198078
O        4.76804999       1.71670995       8.33219012       1.93673131       0.51194735      -0.70864303
O        5.05563001       4.25511999      10.13079989       2.27218580      -0.21068916       1.98346266
O        8.83028005      13.53939997       5.77831009       0.23654542       0.85527951       2.08272981
O        9.98865001      15.70689997      10.11320008      -1.09506935       0.18152702      -1.13745294
O       14.29800001      12.81109998      11.58729992      -1.08741989      -0.08486219      -0.58535975
O       13.47039998       4.75520006      14.10290002       0.56327174      -0.00928573      -0.41618775
O       12.27700004       8.15774001       5.11073998      -0.34049322       1.08818128      -0.25945755
O       12.81910001      16.08680002       8.33891017       0.79131837       0.76514930       0.85222738
O       13.42030002      12.69379995      15.93569994       0.41648287       2.12446512      -1.43999295
Al       1.72509003      12.00519994       8.75544990       1.19637847       1.08725590       0.81808212
Al      13.91540001       0.11131097      14.17400007      -0.40483673       0.47838531      -0.23617924
Al       2.71857002       9.33474993      14.32010006      -2.03193870      -0.88846711      -0.23923727
Al       2.99687998      14.94599999       9.32743995       0.26662063      -0.38023280      -0.33894243
Al      14.49009997       3.39982002      16.63790007       0.17592033       1.17829008       0.21745990
Al       2.60039007       2.17155992      13.42810005       0.38400976       0.42325137      -2.11867775
Al       1.60991006      13.78739998      12.33339995      -0.22399487      -0.06004116      -2.39389361
Al       4.85566996      13.01590002       7.38827007       0.36837964       0.27964212      -0.94335149
Al      12.15220000       6.48833006       5.43168009       0.43702261      -1.06355655       2.38450546
Al       0.81744195       0.15219996      11.26489993       1.02909238      -1.04902610      -1.63642864
Al      15.00600007      13.01670005      16.67400013       0.34752458       1.79802335      -1.67445594
Al       6.68861999      10.24740002      10.40520006      -1.55315924      -0.55228749       0.36885097
Al      11.74289994       8.70790998      12.36960002       0.58385363       0.56165824       0.96164608
Al       9.93331005      13.96070008      10.49769983       1.04333254       0.54624791      -0.86591060
Al      10.14680008       4.46382994       4.19414001      -1.03668377      -2.07339759      -0.51379646
Al       2.15844002       9.48925000       4.56633018      -0.96598363       1.69726542       0.01042399
Al       3.16094005       1.95854004       8.69924985      -3.45089292      -2.49939384       0.43901943
Al       3.00980004       5.30346005      13.34979985      -0.06246325       0.50174134       1.74639117
Al      10.07149997       0.15919800      16.61149999      -2.40449259      -0.25131716       0.90876799
Al       0.83879404       0.79499095       7.99825016      -1.83654642       0.28931126       1.02303429
Al       8.53409006       2.65116993       2.39015992       0.69367415       0.13825148      -0.09038817
Al       4.95997007       3.20494007      11.72259987       0.30579270       0.67190273      -0.80106060
Al      15.74840004       8.36636002      10.06579993       0.36341085      -0.41770246       0.73625647
Al       1.75978995       2.00301004      16.79450010       1.24385513       2.73804375      -1.05440894
O       16.07379993      13.42480006       5.02077989       0.14151461      -0.38437576       0.72488487
O       11.20409996      12.22910002      17.42709994       1.64278226       0.50501696      -0.97752099
O        8.45913006       8.89250003       8.03449987       0.84644324       0.82142912       1.87625959
O       10.36030002      14.51129994      12.34339995       0.06228382       0.45438351       2.09903524
O        4.48696993      11.57330001      18.51429986      -0.62216926       1.83946867       0.41972370
O       15.91150000       4.03315003       6.10315990       0.35046797       0.31844800       0.97183975
O       14.73809998      14.34520000       9.04102986       0.48010487      -0.68118640       0.21069279
O        2.12755001       4.20661003       2.65668018       0.28655458       0.41106633       1.77326592
O       13.65159994       7.75864998      12.52969994      -0.33860248       0.80763437       0.28556281
O        2.03698006      14.81359994      18.82719990      -0.67541861       0.51770236       0.26358035
O        0.98501792      12.65930004       7.30501988      -0.59472182      -0.15349792      -1.63272530
O        8.96935994       6.95704007      14.34960001       0.16409796      -0.50344394       0.09884819
O        6.62243993      10.98100008      14.78880007       2.28993286      -0.19012963      -0.24627781
O       10.74410007       3.45855007      13.92609999      -1.57710170      -1.56900789       0.08952258
O       13.28469998       3.85296002       3.27387999      -0.42159794       2.73753922      -0.82090176
O        1.91792995      10.89759993      14.62150000      -0.46659934       1.13383808       1.09251225
O        2.86971993       5.91091001       9.34009992       2.12104185      -0.68777844      -1.50611498