360
Lattice="16.26740954 0.0 0.0 0.0 16.26740954 0.0 0.0 0.0 36.26740954" Properties=species:S:1:pos:R:3:forces:R:3 step=0 confid=0 wdir=cand0 selection=->scf energy=-2603.1311253 free_energy=-2603.1311253 stress="0.0135704354487108 0.0013691053667383537 0.0005404221412041715 0.0013691053667383537 0.010292827417345374 -0.00047379553548906715 0.0005404221412041715 -0.00047379553548906715 0.015078606638222643" pbc="T T T"
Al       5.55445005       2.92958005       7.49688990       0.42641920      -0.89599015       0.59683240
Al       1.75168995       6.62171998      10.35400016       0.57927876       0.31671116      -1.23097435
Al       8.73829996       0.17334194       4.00033988       0.96420549       0.31141055       0.37229042
Al       2.70375994       2.43109994       3.45354014      -0.02379088      -0.79723235      -0.78137102
Al      15.60150004       1.73384997      14.15469992       0.34041861      -0.24923869       1.05639553
Al       8.65306004      10.70489996      14.77429996      -0.01006905       0.11250505       0.78945686
Al      11.37569993       9.95132995      17.64140007       0.83834340      -0.38161731      -0.17481275
Al      11.47729999       7.33722003      15.56000002       1.87702515       1.44781257       0.01690524
Al      11.00910003       5.99666998      10.66659984      -0.37830330       0.11330230      -0.86718220
Al      14.56029994      13.76890006       4.04038998      -0.90954592      -0.09765572      -1.47329189
Al      12.83069999      14.84469997       6.70303983      -0.74004519       1.38777802       0.84777451
Al       1.48361996       3.56875000       5.90038983      -0.42489994      -0.31165893       0.23831779
Al      14.30900002       0.44417202       9.14923997      -0.11893589       2.40908947       0.84077230
Al      11.18479993       1.31728000       5.82940000      -0.26661790       0.91517625       0.31418189
Al      15.37059994      11.53910004      11.99529991       0.42697417      -0.32270711      -0.45435487
Al       9.10627999       8.57295997      16.90919988       0.60285902       2.92376247      -0.19339082
Al       5.33581005      10.04780008      18.12190009      -0.60771271       0.27209138       0.78664417
Al      15.17330001       3.48375994       7.38588987      -0.11905255      -0.53813300      -1.62909453
Al       4.60547998      13.53059992      12.49619998       0.96093633       0.22790842      -0.66591846
Al       9.85593005       6.92298004       7.73822993       0.25614774      -0.42590872      -1.25072458
Al       9.64641997      10.16260000       3.60528987      -0.34236230       0.96563336       0.94009289
Al      13.33270005      13.13330000      14.26550012      -0.58770535      -0.61396422       0.04922927
Al       6.42732997       7.45529002      10.83890014       0.00462043      -0.83147155       0.11010142
Al      13.24859998       1.60860995      11.55910017      -0.85929567      -0.47588784      -0.59308053
O       14.57679997       4.41768998       8.84993991      -0.04123072       0.26935656      -0.32838086
O        5.93037004      10.62340008       8.72821996      -0.80557233      -0.44793097       2.00412455
O        5.48733007       6.06689004      18.29730016       1.34146186      -0.10928676       0.48349249
O       15.52490006       7.63004999      14.09959993      -0.37817654       0.19433908       1.11754219
O        6.03949003      13.43509997      11.41990005      -0.33064458       0.14889930       0.36547405
O       10.41350007       0.57480306      17.75650014       0.34882024       0.65952454       0.80380490
O       12.66700007       1.24823006       4.73926985       1.37250959       0.27553751       0.13184650
O       15.18809994       0.00319053      14.58519987      -0.18956274      -0.85156305       0.28759667
O       13.75760007      11.57300002       8.53944990      -0.72980085      -0.50183937       0.23237768
O        5.18568008       0.55990097      15.91539996      -0.65190287      -0.57985425      -0.58758216
O        5.03175004      12.63719997      13.94049988      -0.85584974      -0.21841804       0.34923679
O       13.99850007       0.04686006      11.04560007       0.16338403      -0.97946950       0.02655034
O       15.80270008      11.19460007      16.45180003      -0.09721221       0.31650563      -0.03698511
O       11.47209995       1.68223999      11.19629986      -0.38424651      -0.51748097      -0.00539580
O        6.86179994       5.58524995       2.78216003      -0.41573887      -0.76752371       0.25914635
O       11.31369996      15.59219996       6.42783003      -0.36889189       1.17194564       0.24201849
O       11.38989992      16.22530005      13.21449997       0.29506559      -0.92393719       1.29274665
O       15.96640000      14.78439993      12.12839985       0.45812974       0.49652825       0.65325639
O        1.85832998      14.02309997       9.22144004      -0.16168409      -1.28576114      -0.29027170
O        9.49667993      14.89820006       4.27511991      -0.85470268      -1.58499225       0.64405003
O        6.10070007      11.85150003       6.35192017       1.83524372      -1.13069437       0.28518271
O        6.57685999       5.18304004      15.55860010       0.34415714       1.65277386      -0.14796282
O        4.49164992      15.36060004      10.18110000      -0.49152660      -0.91395681      -1.15981409
O       10.88860001       7.87384998       6.42542985       0.82042708      -0.99203476       0.58615561
O        7.81938003      15.98119992      16.77349993      -0.40807968       1.22714534       0.69385851
O        6.81462998       2.16463001       8.63545010      -1.20032285      -0.53911057       0.19382585
O        7.71424994      11.17499996      11.36810003       0.14315781      -0.09792524      -0.49168009
O        2.95502993       7.92911005      10.48609985       0.23024701       0.24359016       0.06084541
O       10.93290007      10.75210001       7.34785986       1.73119485      -1.08898069      -2.14115691
O        6.28943992       8.10594004       3.89397990      -0.42697379       0.82575233       0.70693281
O       14.87169996       2.36003006      15.83560005       0.15069385       0.06894083       0.61439431
O       13.46730001       0.96593194      17.89890013      -1.53028917       0.23079200       0.14033828
O       11.22359998       3.76620007       9.27462003       1.06125249       0.43193027       0.31420591
O       11.23350000       5.54872002       7.36699999       0.03854093       1.46900286      -1.01451382
O        0.14533401       7.93683007      11.75500003       0.49125150       0.41109958      -0.47024901
O       13.13899994       1.92743995       9.54343008       1.21043187      -0.40384762      -0.86893595
Al       2.01302003       5.94008998      17.54700000       0.49326173       0.74192427      -0.20996382
Al      15.74490002      14.69810002      14.01859994       0.00264686       1.01847727       0.54303233
Al       6.90165997      10.61509996       7.36017990       0.55212508       1.39405089      -0.98394407
Al       5.81784007       1.67857998       4.40229992       0.97873518       0.09387296       0.67244606
Al      10.35500002       0.55066906      11.94660003       0.01142378       0.75615356      -0.55179710
Al      13.09990008       3.87672004       9.87322016      -0.16138136      -2.38244800      -1.41715879
Al      11.93389999      12.25909998      11.90780007       0.36359078       0.43915095      -0.58820373
Al       8.27627007      13.49489995       8.01789010      -0.19164388       0.33247778       0.46198342
Al       3.97532006      16.23319999      14.50850010      -0.06090529       1.19067356       1.41666976
Al       9.62919002       5.15314998      13.80170015       1.35707172      -0.30726581       0.31735710
Al       4.68389996       1.95229005      16.92380005       0.69794448      -0.86156194       0.24645430
Al       3.69395000      11.99949994      15.10129998       1.84277076      -0.83735346      -0.52032719
Al       4.09898003      10.46359995       9.11298018      -0.13806444       1.12937398      -0.70449462
Al       0.37638800      10.83860001      15.01569983       1.08880474      -1.39106725      -2.21874578
Al      15.25810007       6.08632000       8.81066013      -0.69413605       0.54483754      -1.75918269
Al       9.11038003       2.26822998      14.06659985      -0.16193439       0.34391867      -0.82109377
Al      12.60820006       8.54303005       3.09678996      -1.26095932      -0.65475267      -0.38763841
Al      12.57729995      11.49909995       7.13419006      -0.77245250      -1.06836475      -0.32820089
Al       9.08797005       8.60454005       9.90399015       1.33779107      -1.02785323      -1.42258876
Al      10.65739994      15.89909993      14.82170001      -0.67546483       0.78632953      -0.73165879
Al       6.35540996       4.95801004       9.68279993       0.42478239       0.59594966       0.11531777
Al       0.54317303      15.04010002       5.47850012      -0.02310209       0.39373420       0.87784140
Al       6.72288993      12.67750003      14.51979994      -0.73630361      -0.07089923      -1.48498942
Al       7.49547004       6.74217006      15.39269991      -0.14414314       0.33732760       0.03575952
O       15.46339998      11.27820008       6.32616015      -0.16502034       0.67218460      -0.89475237
O        4.00463995       6.51221006       3.68703008       0.92811703      -0.04840257      -0.19338970
O        1.34129997      10.84560004       4.66241015      -0.12450989       1.97247294      -0.10239016
O        3.87264001      11.94189998       8.04053003      -0.80373010       0.12140820       0.07824665
O       10.81210008       5.65454993       4.31930993       0.57428597       0.36056285       0.56926219
O        9.43454005       0.83694602       5.50374985       0.27815834      -0.59133546       0.41770967
O        6.50919001       9.18148000       6.36990989       1.13096587      -0.67069966       0.24952132
O        2.78693992       6.31892004      19.08789995       0.30858181       0.32037232      -0.43277730
O        6.85123003       0.13012805       4.32569989      -0.14845996      -0.33104430      -1.55235502
O        9.49891003      11.85709992       3.93127984      -0.21927919      -0.05692484       0.25133746
O        4.40693006      13.05369998       5.41223013      -1.34389128       0.67638263      -0.59584674
O       10.83830004       3.23218998       5.55540009       0.19303234      -0.04245968      -0.53486819
O       10.13359993      12.62170005      11.50699986      -0.34565340      -0.08957213      -0.22801286
O       15.62960004       6.32713004       4.16025994       0.18305982       0.26633059      -0.82803337
O       15.46179992      10.58600000      13.55970006       0.74466632       0.30565236       0.99238379
O       15.25840004       5.29701992      15.82989991      -0.16702478      -0.48341198      -0.01999549
O       15.21009998       6.67044998       7.04919013      -0.26594677       0.49379135       0.87782692
O        0.39991800       7.03034006       9.24872002       2.50319822      -0.47622731       1.08391697
O       14.45339996       7.31947001       9.88738004      -1.59229887      -0.16581382       0.79664968
O       13.17610004       7.03231005      15.63349992      -1.43750002       0.59322082       0.46897287
O        3.28881000       1.04447994      13.27200013       1.17727745      -1.05302191       0.60504974
O       12.24999999      16.14470008      15.53420011       0.32513840      -0.30830835       1.55623055
O        5.46719004       8.08686992      12.07640000      -1.06109262       0.38823412       0.70973808
O        6.68316003      13.60739998      15.98119992       0.38703723      -0.11381636       0.71354641
O        0.28766799      15.17499996       7.25840992      -0.78533755       0.08875522       0.34730398
O        2.22808006       0.30305208       8.41720987      -0.07586894      -0.42700133       0.53655008
O       13.64779993      14.77400002      13.31310017      -0.37929417      -1.41541859       0.68668735
O        3.96608001       6.78119997       7.08953001      -0.73777559       0.63510224       0.71739969
O        4.77437994      10.10760005      10.81529985       0.49754373       1.10426446      -1.06589875
O        9.32961998       8.80135993      11.93110007       0.18740757      -0.30872903       0.33105659
O        7.05235995       5.93545995      11.30230007       1.13514222      -0.83376000       0.51627296
O        7.97905002       4.09018994      10.12210018      -0.26824111      -0.10632632       0.42792799
O       11.69500007       7.48017997      11.36000007       0.88930132      -0.62956372       0.18756839
O        9.37261002       1.65449006       9.41307994       0.04948282      -1.07937564      -0.24696700
O       15.82619998       3.53267002      13.84190004       0.08037504       1.73166615      -0.69908261
O        1.11158007       6.12950005      14.26880009       0.81407484      -1.19564670       0.47716024
Al       0.01232582      14.18900006       8.86400006       0.99481952       0.37474846       0.17700085
Al       0.50895307       4.50088997      15.21809990       0.94049156      -0.35692468      -1.26220829
Al       8.68734995      16.20349993       9.52297998       0.25560978       0.72345252      -0.33277284
Al       3.75103006       8.95132999      11.66250001       0.28074129      -0.73555700       1.94867222
Al       3.48142996       4.20105998       9.30837012      -0.75238064      -2.42923129       1.57058691
Al      15.36490000      11.08680001       8.04817012       0.87090661      -0.83610823       0.54003685
Al       8.35312008       4.74347007      11.70660009      -2.15353064       0.64665547      -3.16971860
Al      14.36069996       4.04796999      12.89809982       0.56093463      -0.33446111       0.43490908
Al       0.68275196       7.58950998      15.26310014       0.49414284       0.15101894       0.63304383
Al      14.13430008       0.08691579       4.16886003      -0.75388902       0.24707698      -0.45361475
Al       0.60616500      12.14779999       5.50285985      -2.11169516      -2.42553427      -1.96048319
Al       8.38766994      14.29719997      16.50100003       0.08867786      -0.18258208       0.81085993
Al       7.84638995      12.91440004      11.66059996      -0.20423351       0.09644768      -1.47893741
Al       8.19750994       8.29185994       6.32175983      -0.40791725       0.03386689      -0.35732082
Al       5.32987000      13.28480001      17.28099994      -0.66844900       0.63095814      -0.61520846
Al       3.81024994      16.25823293      11.73309996      -0.78454661      -0.27238956       0.10689287
Al       5.59256996       1.08928998       9.50158982       1.10014420      -0.45028748       0.50591402
Al      12.47050001      12.90920000      17.49889998       1.37724710      -0.04669598      -0.15840590
Al       6.07857997      16.03559993      17.31499991       0.55931921      -0.38847420      -0.66821943
Al      14.70060000       5.90830005       5.48901005      -0.40036863      -2.38634573       0.57251291
Al      15.07960006       1.69431008      17.55120012       0.36836906      -0.20107354      -1.17382318
Al       5.24542995       5.29500992      16.83210008       0.20334935      -0.92894726      -0.78103748
Al       7.58265994       4.88973002       6.40221001      -0.41793634       1.44108253       1.27413659
Al       4.86925001       7.28087997      13.54420010      -0.04469898      -0.00219221      -0.39647934
O       14.42140001       3.32281003      18.12989996       0.50603645      -0.15525883       0.86003910
O        8.21201998      11.60319998       8.05114985      -1.43074339      -0.89079583      -0.95374568
O        4.30211004      10.28009999      14.99970010      -0.42438192       0.41845611       0.64015912
O        4.03817994       1.38526004       4.20001010      -0.16247183       1.32202341      -0.41015009
O        1.67730006       2.01918993       6.81539010      -0.74025093      -0.06995724      -1.09510186
O       13.12720004       6.61221997       5.05038003       0.94255216       0.02932168      -1.18758854
O        5.88481007       5.64512004       5.55568007      -0.70285901      -0.42908933      -0.37830038
O        9.02583993       4.06696008       7.51959983      -1.06979604      -0.85857565       0.70367579
O        8.31203999       7.18146999      16.87079995      -1.99340952      -3.09601243      -0.42552041
O        1.14379996       2.83174004       4.28666999       0.54495046       0.70031438       0.64155814
O        6.46158002       9.67984998      16.92970003       0.70738947      -0.93216199      -0.38840598
O        6.17709003       7.84437994      14.72129985      -0.70932650      -0.12428910       0.32357574
O       14.32419996      15.16720006       2.90190014       0.53295355      -0.96930354       0.66258190
O        3.46392997       8.30907005      13.54139989      -0.37425299       0.34953759      -0.59765065
O        8.94038999       1.30367996      12.59709991       0.08552776       0.67806716       0.98326738
O        2.30166992       2.89243993       9.46906013       0.64675564       0.90936583      -0.20898870
O        8.70776002       2.57929002      17.99809984      -1.14067353      -1.01637230      -0.38866118
O        6.70918008       2.46520001       2.96487995      -0.96924292      -0.49193987       0.16608602
O       14.24330002       3.91749007       5.72051001       0.55332988       0.34826075       1.14603676
O        9.93729003      10.18839995       9.88357994      -0.51834668       0.13232507       0.41874280
O       15.86709999       9.29971007       8.35301982      -0.76120333       1.33100075       0.06533030
O        2.25411996      15.27899995       5.05471000       0.74218937      -0.41933842       0.31384133
O        4.40416005      15.08350001       3.25234015       0.69609652      -0.83450574       0.02097705
O        2.87078004       3.34881007      12.14680012       0.90452412      -0.04812620       0.39973662
O        8.19367994      13.81389995      10.10380000      -0.39360284      -0.06572685       0.74834171
O       10.11530007      12.97460003       8.63585992       0.66005320       1.36537220       0.50162343
O        8.61544003       1.52062994      20.25559992      -0.44862002      -0.64172136       0.50977600
O       12.52960000       3.74617001      16.61460008      -1.59128722      -0.23484045       0.52015478
O        5.98473003       1.38882000      18.19000013      -0.13962730       0.41762658       0.64033793
O        5.95540998       2.54190995       5.89874003      -0.26006149       0.11418656      -1.13609102
O        8.76298006      13.32089999      17.93540001      -0.99380780       1.60643441      -0.21109623
O        7.37730000       8.73190996      10.19509994      -0.73414671       0.99883195       0.20521381
O        8.43214992       6.54226003       6.51155008       0.14475478      -0.13076826       0.38303112
O        4.06919001      14.51769998       7.37701016      -2.06494803       0.58640667       0.39188013
O        0.15989302      12.37970005       8.63240001       0.71258479      -0.97075259      -0.78947735
O        3.65804994      13.35249993      16.19489983      -0.16950190       0.19397625      -0.09566977
Al       9.63672004      10.58210005      11.67150013       0.26697862       1.00995891      -1.36750257
Al      11.78360002       4.32119008      15.13149985       0.60615323       0.17462880       0.44405546
Al      14.28500006       6.27070995      14.65839984       0.31846656       0.13660610      -0.92897789
Al       5.74082999      12.30979997       4.70049999       1.34324311      -0.23094936      -1.33945790
Al       8.33032000       3.00832993       8.80155012       0.95813028      -0.20101348      -0.39006903
Al       9.90363992      12.84339996      14.06210015      -0.83862939       0.03272630       0.40723421
Al      12.32850001       5.71008996       3.28802003      -0.24936982      -2.28556567       1.28347100
Al       9.82191002      11.28019999       8.46488012      -0.05873806      -0.71561262       1.50336026
Al       3.05629992      13.96420007       5.92820004       0.80909443       0.14023479       0.48067647
Al      13.62589993       2.84897992       4.24500998      -0.15683100      -0.13167859       0.88801765
Al      13.48329998       6.79107006      11.30539985       0.35084798       0.82289441       0.08012522
Al       5.37176005       9.24582004       5.03481987       0.24600026       0.02730800      -0.88976457
Al      11.22630005       1.94451000       9.27537004       0.17603161       0.67334202       1.19618996
Al       5.79666999       6.39325007       3.86667997      -0.33026119      -1.45886383      -0.05182453
Al      14.04609997      11.02270008      16.77690000      -0.13365752       0.44586965       0.66901638
Al       3.20734997      16.15979998       3.73979989      -0.73697881      -1.23483995       0.09665133
Al       4.35332000       7.09154001      19.01630011      -1.49833791      -0.63384924      -0.27634412
Al       9.58541002      15.30360001       6.24710010      -0.51934040       0.27853856      -0.36355926
Al      15.59259998       8.03116999       3.77939991       0.51196776       0.70177384      -0.12923562
Al       5.97466994       9.55841003      15.28319990      -0.66024271       0.51801393      -0.16207155
Al       9.35462998       8.22272004      13.60750014       1.17601714       0.16236696      -1.10614110
Al      15.25119992       8.97983992      12.70279982       0.14577030      -0.56507822       0.62950214
Al       4.26622999       5.21262997       6.34637016       1.19757131       1.18310469      -0.17310360
Al       3.20252994       8.32611992       6.71214005      -0.85037817      -0.89276044       0.04229136
O        2.09023996      15.66729992      11.40079982      -0.76707837      -0.61037341       1.03474684
O        4.87014992       3.56743998      16.46389992       1.07358826       0.14839851      -0.11200394
O        1.00261007       8.31153001       3.33518000       0.38156628       0.89140653       0.79647022
O        7.73612001       2.59674007      15.36819982       0.92067700      -0.67907943      -0.45984761
O       13.09580004       9.78016996      17.43680002      -0.00313938       0.13127822       0.00158208
O        0.65710200      12.36440006      11.77639998      -0.68331787       0.39399334       0.39234930
O       12.74629995      10.29539997       5.81168011       1.11234301       0.57106017       0.36333474
O        1.06290994       1.71069998      14.86540006       0.51398314      -0.16314783       2.46042693
O        8.95173993       0.67340503       2.36166009      -0.18628549       0.01526174       0.50505323
O        9.09845992       9.43281993       5.28151006      -0.04962723       0.20655039      -0.04187319
O        8.69221000       9.00206999      15.04710015       0.34346639       0.34419965       1.18620989
O       12.68180000       5.39815002      10.47659996      -0.50699972       2.44726677       1.54217817
O       10.79020008       5.81277001      15.10499998      -0.52755138      -0.55742295       0.01767254
O        2.60680992      10.24679995      12.30899995      -0.14206650       0.29294570       0.16131966
O        8.49176005       9.67565999       2.43358997       0.27197331      -0.23581079      -0.73386228
O       11.76720003      10.51949997      11.98000014      -0.61384659      -1.03219169      -0.00378642
O       13.71330001      14.78470007       5.28395992       1.46733264       0.82760897      -0.33932833
O       15.27150002       1.69709002       7.74766997       0.64842096      -0.93436065       0.74143964
O        3.95755003       3.97672996       7.62066005       0.68913028      -0.75546401      -1.06203957
O        1.38446994       4.35467004      16.80650001      -0.27128225       0.49435312       0.14340747
O        1.05234995       7.23498001      16.89519993      -0.05261710      -0.04411956      -0.39058968
O        5.84432992      10.62730003       3.88842011       0.20976708       0.11078333       0.48016544
O        3.56523006       5.56387994      16.43890007      -1.11500000       1.21471544       0.16647775
O        9.28418998       3.56779006       2.73594012      -0.49746513       0.69992671       0.17132648
O       12.60029995      13.23490006       7.26577982      -0.04707370      -0.34666340       0.60162516
O        0.75578694      14.08469993      16.89610009      -0.04684547      -0.81399714      -0.12641940
O        3.72463993       8.95841998       8.24349007       0.37413834       0.11085655       0.46727850
O        4.47240004       1.48418005       8.19918000       1.24297444       0.36782507      -0.29831153
O        5.01641004       3.94953004      10.33690007      -0.46211403      -0.10267008       0.12623957
O        8.64982006      13.67369993       6.24778011      -0.03738045      -0.48132818       0.42478562
O        9.95371003      15.55960007      10.73970007       0.26056539      -0.58455606      -1.10181333
O       13.92550007      12.53190005      12.20330003      -0.61862731       0.43451204       1.01284819
O       13.25519999       4.59551993      14.19300012       0.16723236       0.72587901       0.00495449
O       11.20990006       9.41757997       3.89922018       1.34501109      -0.77917554      -0.54283959
O       13.52240000      15.40419995       8.36716012      -0.74748346      -1.67331755      -1.88144262
O       12.90120001      12.09140007      15.77819999      -0.00951028       0.26731877       0.21564569
Al       2.05485005      12.32259998       8.34294002       0.12691428       0.68853995       0.62501106
Al      13.28839999       0.09329050      14.10849995       0.46399553       0.61293570      -0.43029015
Al       2.70222007       9.83344003      14.04790001       1.27544977      -1.19845711       0.01346889
Al       3.13895007      15.16659996       8.83091983       1.44646215      -0.09981255       0.40096695
Al      14.26240007       3.92570007      16.43860014       1.20228170      -0.05253281      -0.48893212
Al       1.94893001       2.16401006      13.37810007       1.40043534       2.31676847      -0.12633632
Al       1.42847003      13.98890002      12.26389997       0.40401075       1.14649900      -0.36641569
Al       5.12616999      13.01709994       7.32935986      -1.30504815      -0.23172778      -0.71660068
Al      11.67539995       6.34162008       5.82210989      -3.14468371      -0.25850380       0.26187951
Al       0.42800498       0.20036601      11.34740005       0.42437345      -0.17569072       0.34698563
Al      15.63580004      13.10209992      16.76990002      -0.54658011      -0.26571053       0.03907161
Al       6.52721999      10.35299994      10.37379999       0.13926372      -0.77290758       0.16959000
Al      11.97240007       8.80683993      12.45420015      -0.67431670       0.53176562       0.48631898
Al      10.37489994      13.82980004      10.13610012      -0.80276212       0.37647081       1.12554555
Al       9.91033006       4.04255001       4.26708015       0.70780274       0.42523965       0.92090363
Al       1.81213005       9.27523998       4.56851999      -0.29552383      -2.08217171      -0.22260907
Al       2.79078993       1.94888007       8.11627016       0.93455148      -0.07076928       1.09651935
Al       2.74503003       4.98112001      13.02300006      -0.71508643      -1.53798175      -0.95277491
Al       9.97400997       1.73365004      19.13640000       2.00785314       0.90187431      -0.57187962
Al       0.58205605       0.65464692       7.83446985      -0.92079854       0.65519035      -0.23365814
Al       7.31195007       0.94743199       2.08995009      -0.18038085       0.97591268      -0.61662661
Al       4.63685998       2.89298993      11.94140001      -1.05958315       1.15794203      -0.13726488
Al      15.78309996       8.53854008      10.05540006       0.04296976       0.07764031      -0.91716783
Al       3.03805000       3.87099993      16.12909987      -0.77961820       0.22848165      -0.52642294
O        0.01749039      13.61609996       4.70112996      -0.54139799      -0.81730930      -0.30089466
O       11.32209996      11.70019994      18.11459982      -0.79971123       0.39007423      -0.28076403
O        8.77928001       8.47991998       7.96270996       0.50568540       1.11376285       1.49956013
O        9.63704994      14.44160007      15.16919982       0.73471085       0.28751386      -0.58257691
O        5.05873003      11.75410005      17.87890011      -0.17179525      -1.86134074       0.86397751
O        0.34748602       4.38364994       6.88087997      -0.55546642      -0.16013053       0.46498651
O       14.78489999      13.80610005       9.90172997       1.25497423       0.56029924       0.70594122
O        3.16244005       3.79835001       2.50820001      -0.23655984      -0.03940398       0.85309604
O       13.63319993       8.26830994      12.54499996       0.82704780       0.18011720      -0.38368941
O        2.68642002      15.98590007      15.79179990      -0.37788808      -1.31197715      -0.10085825
O        1.74239996      12.82710001       6.51640991       2.55494291       1.53720992       2.17012294
O        8.63799007       6.66418003      13.91600016      -0.93817022      -0.74816430       0.84875484
O        6.91911995      10.92389996      14.57470009       0.36036047      -0.02359848       0.40011626
O       10.49440001       3.54841004      14.33580014      -2.29046774      -0.83518478      -1.37548481
O       12.86520007       4.04762008       3.33779016      -0.30090617       1.48577013      -0.95502896
O        2.06835004      11.52050005      14.67610014      -0.95870968       0.40648901       0.21444755
O        2.95315006       5.77773001       9.36755998      -0.55699422       1.81030523      -0.12485594