360
Lattice="16.22101279 0.0 0.0 0.0 16.22101279 0.0 0.0 0.0 36.22101279" Properties=species:S:1:pos:R:3:forces:R:3 step=0 confid=0 wdir=cand0 selection=->scf energy=-2594.87771536 free_energy=-2594.96376059 stress="0.016414514460252445 0.0021807066241270176 0.0006460475871150598 0.0021807066241270176 0.01777300396867706 0.0005958202782433211 0.0006460475871150598 0.0005958202782433211 0.015271876204124424" pbc="T T T"
Al       5.33592000       3.03145003       7.36177017       0.21061877      -0.58047948      -1.01505635
Al       2.04572000       6.30177993      10.62150014      -0.25950696       0.17845886      -1.11186826
Al      11.79040000      14.05950006       3.43223001      -0.95438669       1.88916853      -0.78484326
Al       2.32348003       2.05056003       3.25831988      -0.42800046       1.16631263       0.72743596
Al      16.18640088       2.80103005      13.58949991       1.23117278      -0.36537756      -0.01984807
Al       8.30030993      11.16140006      14.79130008       0.08473544       1.60421080      -0.27452628
Al      12.91880000       7.73285997      17.22950017       1.02960520       1.38653275      -0.28407394
Al      12.32620001       7.72929994      14.56430009      -0.31166903      -0.81980493      -0.29512359
Al      10.43900001       5.22514995      10.14740004       0.66100574      -0.57439264      -2.59856604
Al      14.16210008      13.44829992       4.88178009       1.30871560       0.36592365      -0.37997681
Al      12.45509996      15.14779993       6.69463997      -0.12037841       0.54915327      -0.40424688
Al       1.49130006       3.28814999       6.10805008       1.43963438      -0.24093674      -1.46786848
Al      13.62260006       0.72924304       9.12532999       1.15584580       2.89122890      -0.70252202
Al      10.81029997       1.26937000       5.54699999       0.37434196       0.95991941       0.76591919
Al      15.49879993      11.34319998      12.05690012       0.45354937      -0.44881986      -0.40664805
Al       9.87504001       8.73317998      16.63619998      -1.17859979       0.04616742      -0.27280172
Al       4.38479994       9.68356004      17.46160007       0.08060483      -0.69306541       0.81856894
Al      14.60269993       3.18411993       7.44811998       0.83686788      -2.59003874       0.65456452
Al       4.82081006      13.35830007      11.55689982      -1.31523274       1.91269567       0.02255619
Al       9.80963997       7.08793002       7.52643017      -0.14414585      -0.21710290      -0.84747373
Al      10.51109998      11.21559998       3.42087001      -1.24837281      -2.16814658      -0.34372181
Al      13.16670006      13.74539994      14.84619990      -0.88456175       1.44671564      -1.77037465
Al       6.15776005       7.29299006      10.87850018       2.62674926       2.39127296       0.41393527
Al      13.66769999       1.23325002      11.84609998      -0.32243558       0.55951985      -3.84513197
O       14.34789994       4.32448000       8.85484016       0.65743989       1.06350387      -0.41850462
O        6.44189996      10.24169994       8.61569998      -0.17656989       0.02157516       0.11590317
O        6.50560004       6.29898002      18.28480010       0.25682911       2.38768070       1.15649495
O       16.12390002       6.82278005      14.01899999      -0.57161681      -0.46452828       0.79745182
O        5.70854002      12.09249998      12.31670004      -1.43645175      -1.37983409       0.69174609
O       11.84780000       1.50026006      17.25640006      -0.72905306      -0.00437398       0.82053110
O       12.06419999       1.66261001       4.38806993      -0.08111651      -1.44576477      -0.06480735
O       14.58070002      14.99650005      14.82559993       0.14769098      -1.26125858       0.90691923
O       14.27499995      11.95749996       8.60353986      -0.19021287       0.05494454      -0.44209334
O        4.92989004      15.38350000      15.26279987      -0.54044854       0.53094870       0.80265415
O        4.24336001      12.53209997      14.44830012       1.48923037       0.61580895       0.31229187
O       12.32849999       0.74059694      10.41559998      -0.56378903      -0.15661642       2.86574809
O       15.68100003      11.20600006      16.54089996       0.12262586      -0.32667196      -0.72072973
O       12.13170001       0.96919805      13.68119992       0.39476356       0.12999418      -0.05946670
O        6.56789003       4.52283006       2.63069992       1.17234281      -0.68288985      -0.33602778
O       11.47200001       0.52712501       7.14171991      -0.07976737      -0.75738105      -0.75660546
O       10.65919994      15.28740007      12.46140009      -0.02755005      -0.04617544       1.67109184
O        0.50097998      14.99079999      11.92139984      -0.98503152       1.24286983       0.23211930
O        2.10689999      14.18050006       9.82229001       0.51913168      -0.13697364       0.29087786
O       11.26260004      14.90849992       5.15205006       0.56209161      -0.24783564       0.46494559
O        6.55930992      11.38650003       5.58413993       0.77054082       0.12827856       0.33299351
O        6.78847001       5.17374994      15.85870000      -0.81203429      -1.66705077       0.16090900
O        4.98587006      14.23830007       9.95888017       0.49635541      -1.38137895       1.74141352
O       11.68190008       8.11607993       5.18769008       0.49169680      -0.25265002      -0.69587565
O        7.64396995      15.50780000      16.13069988       0.91001745       0.72936991      -0.09753706
O        6.48199003       2.17370996       8.63758001       0.11456995      -0.07301427      -0.58815783
O        7.87421993      11.13170004      11.37549992      -0.68667565      -0.62646507      -0.89651103
O        2.94542999       7.79730005      10.58330001      -0.19561104       0.19314854      -0.58880520
O       11.40459992      11.04680007       7.53419016      -0.26453638      -0.54051653      -0.45317028
O        6.67200005       7.41541994       3.70225005      -0.02963898      -1.89611785       0.28584301
O       15.99480006       2.66896992      15.46830014       0.29334943       1.21838361      -0.57577540
O       14.00600008       0.85257108      15.89989995       1.41223097       0.76351998       1.22472618
O       10.84060001       3.64834001       9.21683006      -0.13192479       0.64075883       1.28529353
O       11.08839999       5.91807998       7.00672999      -0.71412800       0.39406364       0.50544712
O       16.12220006       7.90143993      11.72419997      -0.56446164       1.10022391       1.44010128
O       12.81479995       2.33523004       8.55049998       0.49518827       0.07083546       0.11674804
Al       3.13402003       6.65101996      17.37330012       0.77722788      -1.08255393       0.85661205
Al      15.15109993      15.48639994      16.66690018       1.34552687      -1.39999025      -1.09936298
Al       8.37178003      10.66099998       5.24209006       0.39357885       1.01342342      -0.29274950
Al       5.14152998       0.81615701       4.76670013      -0.72987579      -0.07744549       0.94621582
Al      10.76810003       0.41475800      11.27590010      -0.55788919      -0.93913675      -1.95261593
Al      12.82259998       3.71633995       9.70247018      -1.22175022       0.27847422      -0.87816122
Al      12.57700006      12.51280005      11.93620011      -0.11384787       0.04653003      -1.95747850
Al       8.63913006      13.11379993       7.29087007       0.57900260       0.02476484      -0.39771451
Al       3.31112008      16.10800002      14.84139989       0.27557748      -1.26861178       1.71528036
Al       9.90258004       5.53512004      13.47800004      -0.37014812      -0.46457324      -0.73136826
Al       3.86952001       0.04376397      18.11230006      -0.41281526       1.91122720      -0.44734693
Al       2.64064998      12.97510005      15.03549997       0.66879791       1.12473507      -0.00578396
Al       4.56023993      10.19920008       8.73112005      -0.29459917      -0.50286438       1.58333168
Al       0.40887593      10.62210005      15.09320004      -0.97988728      -0.64790428       1.75854800
Al      15.23360000       5.92327995       8.93867985       0.93594202       0.08902337      -2.22360699
Al      10.61340007       1.99040002      13.57149988       0.78974959       2.40698981      -1.58955158
Al      11.28229997       8.24921000       3.36461986      -0.47897269       0.49698522      -0.25646359
Al      13.03370008      11.60580001       7.16389007      -1.04590294       0.87936562       1.67850507
Al       9.71644992       8.35411000      10.47999985      -0.92869524      -0.13062478      -0.62906170
Al      10.81430007      15.78539992      14.23559983       0.36569696      -0.82330136      -0.40810061
Al       6.22417001       5.14208003       9.58841999       0.56115681      -2.96574719      -1.73614865
Al       0.66754593      14.88520006       5.70865003      -0.36361360      -0.23595769      -0.86605097
Al       5.53373996      13.92069994      14.49040017      -1.35711234       0.36158623      -0.70818875
Al       7.76425996       6.47112000      15.16790009       0.35433044       0.60436000      -0.97802211
O       16.15180000      11.01719996       6.64517003      -0.74177940      -1.03635798       0.85126788
O        4.03638005       5.67291008       3.50131000       0.27929092       0.38278792       0.53406027
O        0.82356694      10.88230002       4.02052010       0.03958493       0.11619989       1.01546235
O        4.63916002      11.38770006       7.48117998       1.20505487      -0.21854698      -1.66017523
O        9.62875004       7.41920998       3.59726996      -0.19522307       0.26472299      -0.27482732
O        9.25659994       0.61484305       5.11917985       0.30512895       0.33847353       1.66773569
O        7.65601000       9.08317996       5.22585001      -0.64824828      -0.51912266      -0.35730325
O        1.38898002       5.56482996       2.12172008      -1.37039127       1.07938105      -0.21846569
O        4.80687005      15.33109997       5.31100995       0.50072132       0.27628990      -0.32710600
O       10.44020005      12.96520004       3.17522997      -0.13279842      -0.07428170      -0.12049282
O        4.51694004      13.05369994       4.42786995      -0.47856832      -0.40762625       0.66521891
O       10.90070000       5.25003006       4.63801014      -0.01405360      -0.82212016       1.19940075
O       10.16890004      12.81680000      11.38850001       0.24905139       0.30837628      -0.03698056
O        0.08758698       6.01506996       4.70227998      -0.45929470      -0.69155496      -0.70916635
O       15.59729992      10.35180007      13.67299985       0.30798139       0.28291824       0.65459984
O       15.55240000       5.17943995      16.47660005      -0.23052260       0.35765444      -0.72303048
O       15.59140002       6.51858999       7.17472993      -0.78367132      -1.47695843       1.97572611
O        0.33908502       6.04063995      10.16920002       0.35601677      -0.83437640       0.17786698
O       14.26170001       7.30044005       9.48596016      -0.09887456       2.07908460       1.70831695
O       13.73089997       7.22475004      15.53010007      -1.11461721       1.30841833       1.16779875
O        3.69024002       0.94321296      13.59860008       0.24917995       1.94721005      -2.37420288
O       12.06799993      15.20500008      15.43179987      -0.41676910      -0.11630598       0.05119510
O        5.18310005       7.70779007      12.26029994      -0.88303423       0.82473133      -0.15244880
O        6.04723996      13.51340004      16.37260011      -0.20969186      -1.19314674       0.46573452
O        0.44573899      14.93190003       7.45806989      -0.13160366       0.44779848       1.49395179
O        1.11430994       0.40152003       9.38630999       0.27909331       0.23040934      -1.64052441
O       13.91259997      15.72669997      12.41560007       0.27796911      -0.66917036       1.03791647
O        3.59157993       6.53447003       6.84691999      -0.37582082       1.23256042       2.31415968
O        4.99554995       9.71556004      10.54139990       0.57531367      -0.07437652      -0.29978664
O        9.34911000       9.25375008      12.16320010       1.66598092      -0.02354827      -1.11970558
O        6.85176002       5.77521001      11.25670007      -0.90534440       0.71253208       0.63250680
O        7.84654007       3.99613993      10.12999983      -0.15835272      -1.03942843      -1.30562166
O       11.61249994       7.95906004      11.03049985       0.71454472       1.04396565       1.24201718
O        9.22663000       1.59896995       8.41927017       0.64698590      -1.44589124       0.75273258
O       15.75320008       4.24980008      12.62790012       2.42616866      -0.42138884       0.41595404
O        1.87350995       6.29608003      16.28460007      -1.38732706      -0.81297959      -1.42750903
Al       0.49224399      14.15479997       9.08503013       0.35866710       0.66072790      -1.80694488
Al       0.91449496       4.24687008      16.02760003      -0.36372646      -0.64265543      -1.18514830
Al       8.82965007      16.05729995       8.59031992       1.39611137       0.34088443      -0.06762294
Al       3.85514997       8.87149007      11.60229997       1.14416536      -0.34018773      -0.75106034
Al       3.37158001       3.77635997       9.60176996       0.58383452       0.13196283      -0.13664655
Al      15.89149995      11.11460001       8.42529010      -0.31985017       1.17427708      -1.03219679
Al       7.86257000       4.50977993      11.84389992       2.02122301       0.00183810      -0.55158446
Al      14.08060003       4.19394999      12.51120000      -1.28544711       1.76420429      -1.40490573
Al       1.45182996       7.27663993      14.80519989       0.83750993       1.15177155       0.92585350
Al      13.11999992       0.12385003       3.89671016       0.65648150       1.43039565       0.60372073
Al       0.73408193      11.96560008       5.36511002       0.10421712      -0.01333568      -0.98941082
Al       8.18707006      13.94569992      15.40609997       0.16113202      -0.16674278      -0.04648359
Al       7.39954995      12.61409995      12.34780013       2.03804092      -1.80502958       0.10321809
Al       8.24759001       7.52375992       4.66389005      -1.03285916       0.66234437      -0.01175108
Al       4.58881000      13.00860001      17.54929983       0.18402177      -0.00694354      -1.64453949
Al       4.50121004       0.19921204      12.17050008       0.65382991      -2.28198932       0.82384985
Al       5.76126999       0.74965394       9.35073009       0.55034546       0.64526221      -0.24339982
Al      12.82429995      13.32579997      17.71980011       1.36322725       0.45078142      -0.87774422
Al       5.97131005      15.23520004      16.87730008      -0.54865975       1.49027326      -0.90155085
Al      15.05689997       5.05205001       5.67555996       1.31264547       0.15305074      -0.41124516
Al      15.10280008       2.03014004      16.80309988      -1.44582397       1.74038622      -0.48895100
Al       5.90515005       4.91800994      17.61380004      -0.22055903      -1.66765084      -1.75085220
Al       7.31270005       5.15545004       6.29226001       0.07504927      -1.14639081      -0.16416342
Al       4.83480993       7.00709001      13.77319985      -1.28566398      -0.43253196       1.67561079
O       14.16300002       3.20655002      17.95349990      -0.31815834      -0.78667109      -0.17896910
O        8.51522002      11.11930004       7.06249007      -0.33638748       0.71016974       0.79451196
O        4.28065001       9.80818997      15.65190011       0.28969949      -0.29485165      -0.93914521
O        3.58037007       1.19557007       4.05325992      -0.27264306      -1.11111228      -0.07325527
O        1.68694997       1.80964993       7.22128987      -1.74680872      -0.86305423      -0.31773526
O       13.63659993       5.86496995       4.97692001      -1.11670877       1.43522939       0.84169832
O        5.72661007       5.29940001       5.40543995       0.18234930       0.64974830      -0.81297611
O        8.50572002       4.25546997       7.36067014       1.40500183      -1.18890888       0.84584233
O        8.43487993       7.56152000      16.55169998       0.43078964      -0.43929082       0.90617436
O        0.99069398       2.58674999       4.43661986       0.68908252       1.27352786       0.69407685
O        6.18442999       9.04511006      17.13170017      -1.76043006       2.73102640       0.07453465
O        6.34071993       7.59760008      14.80059982      -1.84404067       0.69313779      -0.58318694
O       13.23849994      13.19580007       3.47813000       0.48196641      -0.66553612      -0.00685513
O        3.06613996       7.80894998      14.15880006       0.50420094      -0.03951596       0.00556398
O        9.93916005       1.87447007      11.96329995       0.95388815      -1.45585152       0.40801333
O        2.37775002       2.53064994      10.34079997       0.59177888      -0.32933051      -0.68051035
O        8.54432992       1.54537005      17.48279987      -0.81767627       0.17504973      -0.40905283
O        8.33429003       2.22481004       3.10488007       0.08082311      -4.15498604       0.27221244
O       14.05370008       3.31089996       5.80814987      -0.54701416       1.68250498      -1.05981467
O        9.68163006      10.03189996       9.81117994       0.71443748       0.01458353       1.30177172
O        0.06948725       9.61539999       9.14362015      -0.59190626      -0.74931746       0.50170415
O        2.25208000      14.90690004       4.96477003      -0.67264747       0.30624898      -0.05642317
O        3.93816003      15.02679993       2.60985002       0.47355455      -0.23041545      -1.00988386
O        3.66013998       3.38439996      12.38929999      -0.23637344      -0.25971701       0.95925617
O        7.27828993      13.67760000      11.09380005      -0.62606301       1.93717865      -1.75922143
O        9.63475993      12.67949999       8.72643993       1.00044725       0.35735377       0.79115410
O       10.45079999       3.79029999      18.35309989       0.57973972      -1.05947561      -0.22696090
O       12.50330005       4.52220993      16.58850016      -0.64702058      -0.76299657      -0.50116874
O        5.62427997       0.70285405      17.57760004       0.40409288      -0.51850202       0.24204131
O        5.50483995       1.94495994       5.98375985       0.41502276       1.53262081       1.62283221
O       11.21620000      12.78290003      17.72000005      -0.82185648      -0.11271893       0.65090784
O        7.62896000       8.35290007      10.48040010      -1.12314568      -0.55077001       0.26920524
O        8.41474998       6.63864998       6.30297998       0.21730975       0.86559247       0.39385720
O        3.71712002      13.87910001       7.53746997      -0.09501400       0.89043914       1.00625052
O        0.79235803      12.40739996       8.89798011      -0.52954477      -0.01442248      -0.53275132
O        2.90005998      13.36959995      16.79980015       0.43334027      -0.17707674      -0.84395169
Al       9.77678998      10.97239996      11.43500018      -1.60965107       0.57208602      -0.28240499
Al      12.09089994       4.66997995      14.82770002       0.52349195      -0.58232186       0.70028456
Al      14.80089994       6.03744004      15.00569986       1.66845764      -1.69828735      -0.65248606
Al       5.77968993      11.85239996       4.08922014      -0.28973967       1.46697079      -1.27230882
Al       8.15408999       2.95122998       8.60907986      -0.68347078       2.23688472      -0.13305596
Al      10.21549993      13.52040005      13.05459995       0.09480339      -0.35107533      -0.51836569
Al      13.51630003       5.87994000       3.03856012      -1.71424816      -0.39263392       0.76761655
Al       9.85471994      10.69420002       8.21100007       0.07935556       0.48222439      -1.49666200
Al       3.61461993      13.97840002       5.68571995       0.76578891       0.14618940      -1.14205118
Al      13.28960002       2.90090007       4.17614006       1.10017627       0.46518384      -0.53056646
Al      13.09120000       6.82540996      10.75879987      -0.69761264      -0.67583127      -0.41474946
Al       5.89204007       9.00784001       4.33713015       1.75792426      -1.45753102      -0.17860060
Al      11.05450002       2.14768999       8.09896014      -0.16573219       0.42916435      -0.56522515
Al       5.91468006       5.68800000       3.63442005      -0.81809684       1.46609545      -0.06238004
Al      13.80250001      11.06790004      16.93870013       2.09010179      -0.33720532      -0.35228286
Al       2.73666994      15.80599996       3.47635010       0.33008961       0.14807025       1.02620355
Al       2.84196005       9.66226006      14.56060011      -0.14660186      -1.25528545       0.46310824
Al       9.52681996      15.00990007       5.39818995      -1.90025204      -0.17153660      -0.87112911
Al       0.16090207       6.68042006       2.70927018       0.90378332      -0.21101297       0.29565796
Al       6.02092007       9.29383998      15.40039987       0.20908934      -1.43697270      -0.04687421
Al       9.57462993       8.74488003      13.75050014       0.03291313      -1.24003118      -1.00276300
Al      15.05399997       8.81975007      12.93680016       1.75340559      -0.29338089      -1.96372412
Al       3.91174006       5.63015003       5.39296000       0.73810080      -2.08907124      -0.77806133
Al       3.31762000       8.21278994       6.31854995       0.76026935       0.65831313      -1.25583678
O        2.84492995       0.01238718      11.46249990       0.64175223      -0.22374393       1.05419410
O        5.20870006       3.33065001      17.09330010      -0.76203359      -1.34911448      -0.34505500
O        0.86869201       8.29282993       2.84995984      -0.43259754      -3.15044349      -2.97288805
O        7.03381996       2.11675993      15.41560002       0.73630857       0.82335478       0.02873193
O       13.20970002       9.53384998      17.29480013      -0.03534409      -1.18124411      -0.07247237
O        0.80699198      11.63519995      11.42149988      -0.58523922      -0.28962146       1.32335371
O       13.24009998       9.75376993       6.72416009      -0.08017619      -0.19614159      -0.21713419
O        2.80510996       0.72959504      16.26660004      -0.45474873      -0.97282957       0.92187075
O       12.30220005      15.60959999       2.60513984      -0.49068606      -1.33441385       0.54764542
O        8.54927003      11.32919995       3.51628014       0.50565726       0.46814587       0.29402221
O        8.96982006       9.61646003      15.09560005       0.85008065      -0.33980668       1.47930256
O       12.27450007       5.35519997      10.20370017      -1.13572975       1.37363806       1.12032094
O       11.48629997       6.18285006      14.07660009      -0.01862045      -0.33817932       0.26365164
O        3.72409003       9.96396003      12.99689987       0.42742923       1.50170907       0.94373602
O       11.37189998       9.82126995       2.62783991      -0.57198143       0.63050612       0.89618441
O       11.71290006      10.90819995      11.90960013       0.48576405      -0.46627226      -0.21199884
O       13.74889995      15.24129995       5.29463009      -0.54599961      -0.50722194       0.59028128
O       14.93319998       1.42914000       7.87755015       0.62842047       0.71226554       0.18971279
O        3.74358996       2.92937006       8.16878991       0.01405286      -0.64229179      -0.31186223
O        1.88406999       3.19617003      17.04809990      -1.18779292       0.27524360       0.59563357
O        3.62374993       8.13214004      18.01340003       0.44182315       1.59823032      -0.64932906
O        5.64518999      10.31619997       3.32234016      -0.38495423       0.87644266      -0.63112327
O        3.88019003       5.07994999      17.81010018      -0.06826637       1.81951374       0.66485524
O        9.33700004       4.78030003       2.15282016       0.28384410      -0.11028156      -0.85190843
O       12.54739996      13.45330005       7.39953999       0.39587425       0.56196992       0.34196267
O        1.01998994      12.69820006      18.83400012       1.40894741       0.27726616       0.86154540
O        3.74972004       8.77329000       8.01796018      -0.23794215      -0.58413337       0.28900444
O        4.08875997       0.35684103       8.85305012      -0.87120347      -1.46064428       0.43321771
O        5.00601996       3.90347999      10.21659992       1.55304792       1.02390902       1.04862331
O        8.72850995      13.28759997       5.52373017       0.49394462       0.79336972      -0.79420108
O        9.98257007      15.41380004       9.91037988       0.09460716       1.22834901       0.12769942
O       14.49879996      12.76749996      12.35189998      -1.47924704       0.40077607      -0.08203147
O       13.79859999       4.69167993      14.24930007      -0.77313018       0.03034082      -0.18028275
O       10.23569995      10.45809993       5.04918999       1.40232314      -0.55012856       1.13784199
O       13.51619995      15.48719996       8.32849995      -0.30025403      -1.99396192      -0.78754759
O       13.24239996      12.46700002      15.96570013      -0.42736282      -0.18948024       0.80199452
Al       3.13229995      12.17489997       7.65022997      -1.28331271       1.30816790      -1.25739313
Al      13.94240008       0.34601399      14.13470004      -0.54598289      -0.33829527      -1.11332003
Al       4.98982004      11.15210007      13.62040006      -0.22466456       0.63838637      -0.83496026
Al       3.62380005      14.73900007       9.10528999      -1.63307939       1.76573172      -2.89286263
Al      14.04940005       4.96624993      17.54030000       0.43533357      -0.51555633      -0.89579768
Al       2.64280997       1.88243994      12.09529982      -0.16468384       0.12793496      -0.91802105
Al       2.19136004      14.65099994      12.31280012      -0.08195825       0.23034256      -1.09370656
Al       6.49482993      11.49180003       7.32814005      -0.26553754      -1.32212871      -1.17946124
Al      11.99119992       6.42272007       5.55669998       0.25706471      -1.73607814      -0.90627647
Al       0.36051996       0.59890607      10.92730002       0.38970165       0.02211718       0.62187474
Al      15.91910000      12.50120008      17.84719992      -0.45341481       0.15258885      -1.54230827
Al       6.94714996       9.98701999      10.24429994       0.73377799       0.27000569       1.18677088
Al      12.10170006       9.25198993      12.30879988       0.68907673      -0.95708605      -2.20294977
Al      10.61849996      13.75110000       9.80062984      -0.46190715      -1.63819668       0.42788157
Al      10.23859995       5.79843006       3.09352985       2.05257045       0.60935877       0.27382086
Al       0.90099697       9.16301005       4.17734007      -0.42017154       2.88122577       2.32919130
Al       2.52213001       1.49968000       8.70246995       1.37787395      -0.14673860       0.86170205
Al       2.78302002       4.72140007      13.38600012       1.66231134      -0.33025699      -1.26377437
Al       8.88579992       3.13075004      18.11779986       2.09316641       0.55364355       0.57139040
Al       0.18344603       0.60423208       7.45162001       0.64199993       0.32735258      -0.58018428
Al       8.06689993       0.56982196       3.75410985       1.10297281       0.75543718      -1.42015405
Al       5.37780995       3.12424995      11.72020009      -1.42759519      -1.15075440      -0.45868865
Al      15.39290008       8.71706002      10.28909990       0.17079169      -0.37957708      -1.65995947
Al       3.51566007       3.31283999      17.67900004       0.44633455      -0.71092475      -0.02748116
O       16.02529994      13.52669997       4.99531014      -0.63351382      -0.43679686       0.19869587
O        8.74975007      15.12370004       3.54906016       0.24287700      -1.81802481       0.89194859
O       10.13039995       8.81233998       7.43294989       0.27121341       0.32282438      -0.28355461
O        9.68624007      14.36209997      14.58059991       0.31858265       0.60797663       0.15890881
O        4.55705007      11.34020007      17.88990014      -0.04750759      -0.27245528       0.74997432
O        0.00508723       3.91203998       6.77027994      -1.40966579       0.74102118       0.51015477
O       15.20860001      14.14600007      10.00919985      -1.06278682       0.44197050      -0.12539107
O        2.95358997       3.11755992       2.15631006       0.10523127       2.78550196      -0.51204358
O       13.48860006       8.17444006      13.02199995      -1.84633688       0.41634783       1.24441307
O        2.17319007      15.71420006      18.51959992      -0.28970808      -1.06762591      -0.49924579
O        2.18141007      12.56829992       6.14551999       1.08493166      -0.56988337       1.01487136
O        8.93173004       7.10255002      13.93819996       1.20678556       0.03656433       0.06367053
O        6.58732004      10.67830002      14.48560016      -0.85206713      -0.20892864      -0.18052617
O       10.81419999       3.67293998      14.07349993       0.85366528       1.27072345       0.61362322
O       13.24130001       4.22369998       3.02248994       0.12752960      -3.18827391       0.73075124
O        2.00725998      11.33889995      14.89140010      -0.87573309       0.54634771      -0.52077773
O        3.03250001       5.43594996       9.39910000      -1.37729849       2.25133828       0.42048709