360
Lattice="16.24412028 0.0 0.0 0.0 16.24412028 0.0 0.0 0.0 36.24412028" Properties=species:S:1:pos:R:3:forces:R:3 step=0 confid=0 wdir=cand0 selection=->scf energy=-2582.52260893 free_energy=-2582.52260893 stress="0.016021752106944738 -0.00030087835744307473 -0.00046464290536725326 -0.00030087835744307473 0.01318778493313039 -0.0008515596484729333 -0.00046464290536725326 -0.0008515596484729333 0.012247526580560126" pbc="T T T"
Al       6.21010006       4.24757008       5.55198018      -0.66935699      -0.30625628       0.12180074
Al       1.70591008       6.67941998      10.61709997      -2.46576678      -1.07508875       1.17171896
Al       9.87521007      15.81719995       3.30878989      -0.96452041       3.48413058       0.59944487
Al       2.21541000       2.69092007       3.46602993       0.85769931      -1.04239688      -0.37984987
Al      15.16580000       1.20896004      15.10089996      -0.53804671       1.66779286      -0.18589053
Al       7.26857002       9.62119004      16.02300004      -0.45802816       1.54896183      -0.81997689
Al      12.60300007       7.59528996      17.28420010       2.11062167       0.49481414      -0.29160713
Al      11.32720002       7.24788005      15.11400004       0.91262775      -1.70827470      -0.29876025
Al      11.47459998       6.22617995      10.88399986      -1.06474955       0.11643949      -0.90365197
Al      14.54199995      13.63320007       4.88817999      -0.35888101      -0.59416279       1.53068100
Al      13.40240003      15.02300005       7.58741989      -2.11122048      -1.48283099      -1.49077969
Al       1.54605998       4.02232001       6.03016988      -0.35981471      -1.13073659      -0.12988444
Al      15.66810004       0.27365592       7.32241992       2.06052190      -0.55181889      -0.22235732
Al      10.76690003       1.74811003       4.84773989       0.90434699       0.48012721      -0.16730109
Al      14.80160000      10.42100000      12.06479996      -1.36747154      -0.49611649      -0.81050129
Al       9.68634001       9.08541997      16.99750005       0.32684927      -1.74478199      -1.32586763
Al       3.33889998      11.44110006      17.50310009       0.84563913       0.75310569       0.12169203
Al      14.75719995       3.71579995       7.36565988       0.16393745      -2.09563542      -1.23049227
Al       3.94766008      13.06079999      11.81190008       0.90464170       0.62576223       0.39527277
Al      10.63689996       6.99248008       7.84846998       1.46904472       1.84528984      -0.03313306
Al       9.44055006       9.65934001       4.29415988      -1.12968711       2.13814359       0.67767676
Al      13.31649999      12.32790004      14.51259990      -0.80906432      -0.68447367       1.03710101
Al       6.48351004       7.09244006      11.28720012      -0.57419273      -0.19178427       0.83553072
Al      13.78019993       1.91596004      10.11489999       1.90855687       1.62462853       0.85279588
O       15.47009997       4.75048999       8.60281015       0.21645399       1.09436347       1.07441401
O        5.89218004      10.67170006       9.33537994      -0.32249865       1.26415907       1.13899042
O        3.13186996       5.54269007      19.10650010       2.94406784       1.01268258       2.06947951
O        1.31281000       5.72891006      14.33019991       0.27220081      -0.40943213      -0.63149566
O        5.29846995      13.20519998      10.57350011       1.39997352       0.93658805       0.41457780
O       12.02740006       1.42054994      18.37629996      -1.34068766      -0.22711706      -1.00010302
O       12.48949996       1.55962008       4.47025012      -1.37548821       1.02786965      -0.91149007
O       15.12929995      15.82459995      14.29249987      -0.11596397       0.98607189       1.35555338
O       14.76869997      11.97740001       8.36001007      -2.12042886      -0.29194906      -0.69456427
O        4.84388003      15.86580008      14.70479993      -1.41394754       1.89683963       0.39917942
O        4.96172008      12.06760004      12.89790006      -0.14785304       0.82600008      -0.08270031
O       12.89870008       0.90720602      11.60089986       1.22540922      -0.74634481      -1.02724428
O       14.54579994      11.40709997      15.65689999      -0.57470480       0.92555836       2.62857772
O       10.96530003      15.49839999      11.14369986       0.68330408      -1.04974437      -0.04321853
O        5.91700999       5.04963001       1.95606001      -1.21989170       2.11818528       1.68820398
O       11.50450004      15.32730002       7.42600018       1.31490398       2.74767327       1.44309973
O       12.60500005      15.90770000      13.97929993      -2.48146959      -0.70861631       1.98289381
O        0.27480000      14.34359995      12.51309986       0.53921946       0.96024400       2.37241412
O        2.18131992      13.90299996       9.28016999      -1.64961405       0.56873454       2.53411280
O       10.51510008      14.34669998       3.40740000       0.00006941      -3.37166074      -0.32594634
O        5.98233995      10.99480000       6.36223996      -0.64319975       0.84212214       1.03475725
O        8.96634001       3.82365003      13.53589987      -0.50091220       1.55147504      -1.03434397
O        4.04841001      15.52199993       9.39276997       0.68706080       0.03598292      -0.21907924
O       11.94649996       7.93171999       6.55625002      -0.50741211       0.52936389       2.65361661
O        7.70983992      15.38139993      14.94079990       1.52386900       1.36213530       1.53174879
O        7.51273003       1.64926001       8.38203997       0.72092990       1.50772249       1.19006802
O        7.14129994      10.93660008      11.88400015       1.73554472      -0.18913976      -0.27140641
O        3.03406005       7.67127005      10.59820011       1.14515475       0.32805365      -0.43840481
O       11.48360003      11.34289996       8.28286011       0.04500575      -0.59232218      -1.06907050
O        5.89329000       8.16238000       3.06848993      -1.64121492      -0.35054714       0.37100001
O       15.16039997       5.00137994      16.06969986       0.12634663       1.10581858      -2.15253425
O       13.84560006       1.05775002      16.28029995      -0.31534482      -1.96381119      -0.63893496
O       13.46120001       3.28313001       8.85012988       0.34745658      -0.39851985       0.04725755
O       11.56959998       5.58310999       7.19517986       0.39992391      -2.83420278      -0.92225183
O        0.88741402       7.30482998      12.34010015       2.05643990       1.27921526      -2.78286235
O       13.03809997       0.67685594       9.14769991      -2.53327950      -1.82432985      -1.00360506
Al       2.61873006       5.12922003      17.59929996      -1.68799339      -0.92930200      -1.58269944
Al       0.43683103      15.04189992      14.12729989       0.61472561      -0.01833551      -0.39885983
Al       6.86811997      10.72709998       7.93511010       0.74636845       0.16597205      -3.74955198
Al       5.39385998       1.41125002       3.37179993      -0.30155167      -0.38893898       0.92089365
Al       9.64837994       0.91526797      10.93070005      -0.17706550       0.52179314       1.39315180
Al      14.18890005       4.57138995       9.94138018       1.90718586      -0.90851693       0.75036548
Al      12.38049997      11.82139993      11.76810015      -1.44140788      -0.45196678      -2.15464801
Al       8.32124993      13.55489999       7.56630008      -0.34682923      -1.41403911      -2.67649687
Al       3.30123993      15.28580003      13.91020015       1.48242644      -0.38074123       1.18743598
Al       9.87395001       5.60802002      13.43079989      -1.95407475      -3.28115908       0.33070905
Al       4.91937004       1.28313005      16.03910004       0.74452766      -2.45808849       0.66923186
Al       2.06469007      12.63769995      15.24950013      -0.35515433      -0.83932686       0.28270740
Al       4.11696995      10.69649996       8.97567988       0.35175451       0.61095631       1.39321252
Al      15.74120004      11.10249998      14.49449995      -0.06050239       0.55331902       0.52706481
Al       0.39995802       6.17017006       8.50235994      -0.54719183      -3.30871488      -1.95091068
Al       9.76409005       2.36785993      14.11290010       0.50478165      -0.59663678       0.10258748
Al      10.50380002       7.08472004       3.44219000       2.42377996      -1.50295721       0.78143101
Al      13.06179998      11.72799997       7.53520987       1.24380940       4.74645335       0.38781437
Al       9.28520998       8.60631004       9.93092991       2.44916343      -0.64856756      -1.40030335
Al      11.10399996      15.88580000      12.96599986       0.20889780      -2.75678709       1.15295270
Al       5.96653003       5.03968000       8.90411006      -0.15372543      -1.14356638      -0.80535442
Al       1.45398002      14.77010005       5.51855005       0.55362315      -1.99430750      -0.03669186
Al       4.84079999      11.78349996      14.67740010       3.85468697       2.23013134      -1.80870268
Al       6.65437999       7.49001994      17.50940004       2.08794393      -1.18701965      -0.94897505
O       15.70380007      10.08390007       6.10731984      -1.03445369       0.54514389      -2.06790297
O        3.43377003       7.00040997       3.59992006       1.55356203       0.02123996      -1.27502236
O        1.10428001      11.27630004       3.56843008      -0.72925797       1.44535080       1.31218733
O        3.79141000      12.08759996       7.89451995      -0.97804588       0.38845684      -0.26655002
O        9.56148997       5.73585004       3.40172018      -0.41481643      -0.31800032      -0.28155878
O       10.29869997       0.09008209       5.10447004      -1.32236810       0.09773849      -0.62064520
O        7.50110996       9.06920996       8.21819987       0.03640568      -0.46034525      -1.49033139
O        8.07752997       8.74375008      17.50750012      -1.95873067      -0.86514779       0.74078170
O        5.74314999      16.03380002       4.07312004       0.08003429       0.09830511      -1.17856414
O        9.37824996      11.39229996       4.00938982       0.29281481      -0.56209710      -0.30969823
O        5.01248994      13.43159997       5.01753996      -0.28972138      -0.45132221      -0.78265452
O       10.71350008       3.58163002       4.96221005      -1.03429545      -0.40105125      -0.45245339
O       10.83889998      12.17960000      10.89929996      -1.35427825      -0.18992410      -0.58223348
O        0.42664207       6.76329000       4.27661990       1.59597841       0.70446315      -2.53372926
O       15.35109993       9.66265998      13.68920018       0.65485231      -2.55734950      -1.16419662
O       13.76840004       6.48781002      18.03499995      -2.22865493       2.46759071       0.60460805
O       16.15172226       7.05447008       7.07084984      -0.18637601      -0.33774939      -0.46638489
O        0.33003602       7.34973003       9.68788989       0.27807015       1.91779302       1.55669708
O       15.26399993       5.66143004      11.19839985       0.48683355      -0.00132011       0.35479934
O       13.09550003       6.94376997      15.42289998      -1.27331700       0.36762017       0.91105806
O        3.72924001       1.36713002      12.63270002      -0.94884322      -0.52550822      -0.00648096
O       13.85279994      13.72020000      15.56759991      -0.87069994       2.04727464      -1.37781362
O        6.02567000       7.70430994      13.29369999      -0.88240518       0.32400058      -2.31242297
O        5.80859998      13.17240002      15.56749988      -0.67372326      -0.35833762       1.00346247
O       15.12829996      14.87810006       8.13215996       1.13771639       0.54776705       0.74136612
O        1.31059008       0.59583807       8.05778992       0.48969561      -1.88438461       1.17136952
O       13.75870003      14.71059995      11.98360008       0.92216409       1.39417527      -0.30342820
O        3.99425000       6.86026999       7.34984004       0.83646628       1.57644213       0.46030361
O        5.24205006       8.53720998      10.79240010       0.54758296       0.83745205       1.03737033
O       10.11310001       9.01877993      11.52919993       1.00756658      -0.21072182       1.40281446
O        7.08440994       5.57378002      12.18159990       0.34035116       1.22271809      -1.13535520
O        7.18928994       4.24950004       9.76405002       2.56388613      -2.21230750       1.95189865
O       12.46880008       7.29716000      12.01160011      -1.60026991       0.66624434       0.02649347
O        9.77517001       1.12543001       9.10000011       2.80458778      -0.89751448       0.17753679
O        0.01227974       2.37839002      15.75879997      -0.39829036      -0.25445662      -1.73451903
O        3.99737992       5.69478003      14.27459998      -0.72207376      -0.50722496       0.01766644
Al      14.75849996      13.52640001       9.25399014       1.32017550      -1.05923696       0.75315238
Al       0.55978197       4.16588002      15.12590007       0.63334509      -0.72571567       0.01770157
Al       8.23391000      16.17920000       8.87805018       0.14167951       1.89452976      -0.17783946
Al       3.64299998       9.00623004      11.59190009       1.93322183       1.35424343      -3.20722873
Al       2.99438996       4.27934000      10.30520011      -1.38809804      -1.60646891      -2.51901852
Al      16.09639999      11.06149998       7.58414995       0.71989569       1.71645752       1.33340176
Al       7.85922004       4.05404006      11.57629989      -1.04428637      -0.52640330       0.52791604
Al      14.35780008       3.44079999      13.01679998      -0.78219417      -1.16854681      -1.56362327
Al       2.66829997       6.75760001      14.93580002      -1.37394603       1.23735685       1.65548595
Al      13.65890005       0.34675706       4.75524996       1.97045670      -1.37066356       1.16302493
Al       0.26449992      11.84300006       4.92579015       0.41763365       0.36652467      -0.74365943
Al       8.45595998      13.93149994      14.18150007       0.50998447       2.30589056      -1.08739297
Al       6.69384005      12.71799999      12.09449984      -1.35842168      -2.14195803      -1.10817844
Al       8.49974000       8.66589006       6.80621992       1.60143319      -0.03625707      -1.03955091
Al       6.26647008      12.84099999      17.29290014      -1.66246656      -1.41851346       0.68309455
Al       3.79290998       0.15594307      10.98120007       0.95072658      -0.09516302       1.09096282
Al       5.92530993       1.23400994       9.03467008      -0.40320863       0.13995996      -0.31447609
Al      11.51969999      13.74700004      17.84640005      -0.47481183      -1.58278676       1.83754387
Al       6.11004001      14.76559995      14.75279983      -0.55522700      -1.96612129       0.16295935
Al      15.68889998       6.19441002       5.49711999       2.28842214      -0.63442916       2.18622300
Al       0.10621397       2.97241004      17.40100004      -1.35065539      -0.48537137       3.31757573
Al       4.95616995       5.84474006      18.42869990      -2.30729661      -0.32519926       0.54247159
Al       8.39655004       5.16681006       6.87310989       0.57346179       0.68112316       2.07784448
Al       7.13954005       6.75193000      14.18099991       0.47511601      -2.45669779      -0.29478971
O       14.63590007       3.45417004      18.21370014       1.19740626      -0.92263855      -1.47314025
O        8.45335004      11.50899999       7.61765002       0.46744013       2.10962240       0.46017446
O        3.48793994      11.20609994      15.48650007      -2.28267328      -0.22132864       0.75988302
O        3.68496000       1.80072002       3.09596985       0.52407964      -1.31882121      -0.00841638
O        2.16932007       3.23255005       7.50479997      -1.28364488       0.49323987      -0.47126425
O       14.10820007       6.45005999       5.23269992      -1.28596876      -0.57822681       1.12408362
O        5.48261996       5.75996996       4.81743002       0.87840846       0.48957045      -0.99500730
O        9.37186001       4.12679001       8.00953015      -0.43572069       0.15649349      -1.03198029
O        5.08116992       7.75138995      18.16809996      -2.57122362       0.24380437      -0.55136138
O        1.53316003       2.48587996       5.04057999      -0.10370279       1.42394824       1.98605591
O        2.85337004       9.80158993      17.66679992      -0.67874993       0.23759041       0.95492093
O        6.60002002       7.81421002      15.63219998       0.48174104       0.22786029       1.69200710
O       13.79740002      14.98660006       4.21426986      -0.20726646       0.51591556      -1.14295940
O        3.90770003       8.74796997      15.55980018      -0.52386800      -1.91024377      -1.14981374
O       10.19470008       1.08573994      12.87369986      -1.37921138       1.05159576      -0.55711212
O        2.02319998       2.60769007       9.89061014      -0.49443696       0.24081989       1.37872380
O       10.58649997      14.99800003      19.08620013      -0.61690130      -0.70087377      -1.08876341
O        6.51224995       1.92563000       1.90889010      -0.37418865      -0.43715786       0.98260857
O       13.36170006       3.57888005       6.26558994      -0.67729389       0.38569364      -1.80551482
O        8.82679002      10.45169993       9.94993995      -0.03085473       1.20306310       0.27744591
O       16.08619998       9.52166995       8.29659989      -1.66560025      -2.80022434       5.20751472
O        2.67261993      15.00499994       4.31805998       1.21160811       1.59239112      -1.79663127
O        3.92500002      15.36530005       2.06310014      -2.35535478       2.00151485       0.67705337
O        3.86226003       3.95346004      11.88439992       1.55182619      -0.17749864      -0.77185704
O        8.53373001      13.01630003      11.75410014       0.14755719       0.03349150      -0.66919276
O        9.32094006      13.50699998       9.07479994       0.00492302      -1.13204495      -0.61614024
O        5.64793004      13.86210003       2.46044986       1.74810325      -1.24840963       1.37727831
O       12.62299999       4.03011004      16.83960000      -1.28819917      -0.27773836      -1.35600797
O        6.50898001       0.69153104      16.92429997      -3.43779556       1.34638817      -0.63418745
O        5.97345993       2.89159993       4.39578005       0.28678972      -0.39541732      -2.65416416
O        7.36096008      11.44670005      17.16590002       2.10246921      -2.11534546      -1.94406452
O        7.75457006       8.10181997      10.60599985      -0.11246874       1.23208617       0.81901538
O        9.13902995       6.85217994       6.98047984      -2.19740949      -0.45534108      -0.78908448
O        2.19602004      14.33910001       7.04595013       0.73209028       0.75748504      -0.58073077
O        1.04560007      11.44390005       9.01528999       1.90360206       1.59145121      -1.07247931
O        1.85343999      12.49320005      17.05460012       1.39114286      -1.18930613       0.41379527
Al       9.17925007      11.26619994      11.49660016       0.78303466       1.07800918       1.59071644
Al      12.00290003       4.06096997      15.17300003      -2.57380120      -0.24283811       0.66394453
Al      14.26140000       5.80080995      14.67750014       0.03368348      -0.04130500       0.22561353
Al       6.29037996      12.56020006       3.66286994      -1.47611189       0.88740363       0.15523258
Al       8.49408997       3.03820994       9.08783006      -0.23433083      -0.43834359      -0.41186305
Al      10.51309994      12.37849999      14.07310007       2.21635652      -0.14352505       0.43414644
Al      13.61339995       5.93108000       3.44354988       1.50534218       1.95120854      -0.39290587
Al       9.80748005      11.66600006       8.77372003       0.24613266      -0.42527772       0.40053169
Al       4.43961001      14.60799998       3.62829015      -0.98388048       0.16410406       0.32353348
Al      13.64590004       2.96376996       4.35112984       0.50427218       0.10454525       1.79635773
Al      14.05529996       6.98260999      11.46579991       1.99600790      -0.83512321      -0.44529581
Al       4.25353004       8.87827998       3.32571010      -3.04668378      -0.41545273      -0.59666083
Al      11.46789993       1.04887992       8.25096999      -0.60216015      -1.76995454      -1.22876184
Al       5.30691998       6.41171996       3.10452999       0.16001680      -0.38205649       0.28501281
Al      11.91880000      10.87410001      17.00669989       2.25171636       1.09909918      -1.05052174
Al       2.67575001       0.10389804       2.84352013       0.53090042      -0.18080410       0.26273844
Al       3.47063005       8.29877992      17.23339998       1.12053638      -1.04431624       0.82523721
Al      10.08920004      15.22370006       6.44451012       0.46882913      -1.68184765      -0.94147903
Al      15.36610008       8.05002997       2.99809007      -0.03391674      -0.66143671      -0.14663766
Al       5.11736994       8.87909008      14.25729994       0.91459605      -0.51607586      -0.13944379
Al       9.60669005       9.28581994      13.67190013       0.09621957      -0.69247757      -0.29589955
Al       0.01227974       8.06884002      13.57720004      -0.03113334       2.27013423       1.05768558
Al       4.17984005       5.77961008       6.00241993      -2.11632538      -1.53757506      -0.02489257
Al       3.64745997       8.57922995       6.63507990      -1.91943163       1.13902941       0.26645125
O        1.88851007      16.09049996      10.82230005       0.11326836       0.95608682      -0.66079111
O        5.21313001       2.71710998      15.01300000       0.94177379       1.62562544       0.24476935
O        0.29399600       8.79526002       2.06552994       1.90550296       1.54569712      -0.04806099
O        8.21329995       2.06567998      15.02109983       0.33260893      -2.07034851       1.29565882
O       12.61349994       9.34603998      17.18520001       0.37520476      -1.12812832       0.74464648
O        0.23615702      10.29869997      11.18190007      -0.62257504      -0.40009762       1.01122788
O       13.04890003      10.39430003       6.53419982      -0.73839032      -1.52664789      -1.58553581
O        1.79622999       0.05047974      14.28540001       0.75244958      -1.15263634      -0.50616725
O        9.92620004       1.37553001       2.90968994       2.64369465      -0.24484388       1.20604794
O       10.11820002       9.40711999       5.90591017      -1.96201579       0.62357207      -0.48810425
O        8.91767002       9.65861000      15.27469994       0.01411935      -1.06377196       0.13546889
O       13.02509996       5.74100998      10.24999995      -1.37847335       2.11396083      -0.32887522
O       10.88890003       5.47921000      14.79860008       0.94480009       0.67841797       1.39884546
O        3.75636006       9.55934997      13.18609989      -1.19449566      -0.54338568       2.01354099
O        7.68960998       8.87403003       5.06827992       1.87206478       0.31114986       1.43264543
O       12.97029993      10.16749995      12.27790016      -1.68703866       0.56861504       0.23002914
O       13.36670000      13.32420002       6.45562003       0.30805113       0.45947514       1.31101312
O       15.86220006       2.08288998       7.13981008      -1.34203405       2.26700124       0.70806199
O        4.46213996       3.97402006       6.15122017       0.21115626      -0.23255248       1.83520155
O        1.34287007       4.10744001      16.83929990       0.78068141       1.93291052       0.11188649
O        2.61657008       6.70522003      16.73309991       0.06922995       1.66938358      -0.65873142
O        5.96573001      10.94299994       3.52358016      -0.02920670      -1.94529235       0.05988671
O        4.30270002       4.79239007      17.08179988       1.21006687      -1.13135155      -2.40774950
O        8.26194005       3.31498002       2.95021992      -0.17296738       1.27405988      -0.18639911
O       13.04890003      14.15430007       9.42225999       0.73573770       0.39835401      -1.14836074
O       15.42030004      13.71629995      18.09430004       0.83008987      -0.81466552      -1.99291919
O        4.07623993       9.12618995       8.29959003       0.17029023      -1.11259361      -0.29727994
O        4.66729004       1.63629005       8.03261004      -1.11734140       0.14986303      -1.48576368
O        4.41164008       4.28531004       8.99509005      -2.26633100      -1.39016471       0.72480228
O        9.66228994      13.48640000       6.03546986      -0.86509174       1.28497135       0.29826464
O        8.57979005      15.67570001      10.78040003      -0.01776888       0.56122140      -1.73671027
O       14.84349992      12.12399995      13.31990014       0.32901558       0.08089187      -0.17039500
O       13.21309999       4.39046002      14.01820002       1.24642581       0.99359462      -0.69265215
O       10.05360008       8.61767004       3.10849002       0.02199118       0.71786891      -0.50964445
O       14.12170007       0.06166999       6.50268012      -2.02814315       0.40575704      -0.21183296
O       11.72589993      11.63269994      15.39569985       0.58897463       0.89193838      -1.33837845
Al       1.85691997      12.72960008       7.93563999       1.56618107       0.66726643       0.16978668
Al      13.86399994       0.26092508      12.99010002       0.58390435      -0.86572618      -2.00140213
Al       2.43820006       9.80891002      14.64329982       2.01593150       0.16584082       0.31549211
Al       2.42415994      15.51380006       8.56579983      -0.40975327      -1.11332284      -1.33836999
Al      13.99990004       4.94872998      17.46970004       2.10234517      -2.06833708       0.35527202
Al       2.16572996       1.74276003      13.50359983      -1.19354766      -0.54428466      -0.55588747
Al       1.36723008      14.37100005      11.03519982       0.19411526      -2.33925184      -1.21960107
Al       4.89087005      12.61950003       6.57292014       3.18549510      -2.06829799      -0.42295552
Al      12.46820002       6.44626000       5.91179984       1.25247304       1.24926732      -1.00462779
Al       0.93595307       1.43047997      10.79629996      -0.90587400       0.12755480       0.80956698
Al      14.39800005      12.90129995      16.97490003      -0.90261515      -2.31032385       1.26962795
Al       7.03776008       9.86929997      10.47240003      -2.16765440      -1.40972194      -0.12798545
Al      11.78829993       8.87852007      12.19800000      -0.34879297       0.14014966       1.31745718
Al       9.57816002      14.08850002      10.68539984       0.31420378       0.50410649       1.82413544
Al       9.22064999       4.24625008       4.12220001       2.01126129       0.30217405      -2.20374917
Al       1.43891002       9.98535008       2.63055983      -0.59323771      -1.95171322      -1.25897439
Al       3.88407003       3.06459007       7.63744982       1.05634643       1.32276056      -0.26833328
Al       2.90437999       4.77192995      13.08790007      -1.44644832      -1.71569896       1.88217430
Al      10.91929993       0.15472898      17.99939989       0.69037162      -0.92222858      -0.25822748
Al       0.89077298       2.28540006       8.42632992       0.82104548      -0.23303405      -0.88659650
Al       8.32240992       1.70031008       2.38898987      -1.38659875      -1.44825030       0.05898977
Al       4.96734997       2.58134000      12.19060004      -0.14912579      -1.89058452      -2.21410131
Al      15.95620007       8.93165004      10.07149983       0.05529095       1.35943539      -1.96066958
Al       4.97802008       4.51579007      15.44409989       0.64761867       0.30815786      -0.06194247
O        0.16907498      13.69040000       5.00580992      -2.00040114      -0.56698584      -1.19984743
O        9.96420998      13.09329993      17.46230008      -1.00428754       2.76054118       1.33887527
O       10.20710003       8.96068998       8.29449991      -0.21263965       0.00200315       0.11121620
O       10.17949997      14.33630001      13.73500006      -0.32247757       0.46068891      -0.59504089
O        4.88185993      12.12889999      18.10479997      -2.01609422      -0.44844467      -1.17165239
O       16.13930006       4.65705998       6.17406991      -0.65629528      -1.89337834       0.22159213
O       16.16900000      13.37110005      10.51299997      -2.85104656       0.00132324      -1.13020432
O        2.12192005       4.28039993       3.19142998      -0.20496688       3.84695171      -0.67284305
O       14.96049999       6.86793998      13.28020014      -0.59421251      -0.94096610       2.80279865
O        1.69960996      15.27779996      17.92490010      -0.85734703      -1.48322082      -1.03926867
O        0.95016993      12.03669998       6.54407997       0.34709281      -0.51977979       1.66979102
O        8.85184999       6.90688006      13.61329991      -1.50014029       3.29413740       1.91486506
O        6.14205002      10.23890000      14.69699983      -0.79897261       1.33982547       1.38357181
O       11.13119993       2.48384993      15.24469996       0.20607254       1.02026416      -0.71042551
O       13.85620000       4.33590008       3.42829002      -0.04496611      -3.81321142      -0.22203941
O        1.19353999      11.17850004      14.34370012       2.02733092       0.16051172       1.09545433
O        1.90462993       5.47806998       9.23500004       0.56731731       0.53947465       0.44725686