360
Lattice="16.25961137 0.0 0.0 0.0 16.25961137 0.0 0.0 0.0 36.25961137" Properties=species:S:1:pos:R:3:forces:R:3 step=0 confid=0 wdir=cand0 selection=->scf energy=-2594.05892815 free_energy=-2594.11208735 stress="0.011894190542166725 0.0034253082579995165 -0.000739946217295346 0.0034253082579995165 0.017498204496331646 -3.0744463101330506e-05 -0.000739946217295346 -3.0744463101330506e-05 0.014013643251634197" pbc="T T T"
Al       5.44284995       2.99234994       7.29357006      -0.09016782       0.37252637      -0.18010003
Al       1.82371004       6.48246999      10.53559993       1.32629181      -0.66158018      -0.58123054
Al       9.78149993       0.40815706       3.75645984       0.27248193      -1.04190986      -1.75331745
Al       1.63982994       2.64214994       3.26278016       0.17654162      -0.59730646      -1.03093327
Al      16.13800005       0.67610098      12.96880006      -0.12054705      -0.09687642       0.24455782
Al       8.86796001      10.27559993      14.95149991      -0.01069641       0.74084652      -1.76404055
Al      13.07370003       8.71085997      17.13189984       0.77087300       0.33403277       0.08708914
Al      11.03890007       7.83435993      15.75549986      -0.45460069      -0.42136449      -0.00406432
Al      10.70050000       6.78725998      11.16239989       0.38980108      -0.75930148      -1.59652576
Al      14.39350000      13.29749992       4.85459015      -0.00419759       1.22648882      -0.15235209
Al      13.04080001      14.96880001       7.14162017       0.12932022       0.06847821       0.98453607
Al       0.61619504       3.19593994       6.12731012      -0.59351734      -0.31460562      -1.21171758
Al      14.77449993       0.18805899       9.27745995      -2.01528339      -1.12544194      -0.73235940
Al      11.16540001       1.15311001       6.10641008      -0.14821800       0.30680945      -0.16890817
Al      15.59990008      11.84980006      11.96580011       0.44313726       1.13576328      -1.47660618
Al      10.16170005       9.62621999      17.82619997      -3.32754051      -2.75151815       0.40988476
Al       4.45400998      11.25120003       2.27129009       0.02051903       0.83952560      -1.37717442
Al      14.40170005       2.24384995       7.48146012      -0.43981574       0.66131628      -3.34147796
Al       5.05422995      13.35740000      12.28840006       0.50033363       0.09962528       1.59760187
Al       9.65930993       5.90218007       7.99418988       0.69007303      -0.03494733       0.13489984
Al      10.49330003      10.42690000       3.50483989      -0.03977706      -1.68265840       0.67754054
Al      12.79739997      13.60309997      14.85320010       1.21722098       1.67556295      -0.13203499
Al       6.19502998       7.44387008      11.14299991       0.88231303      -0.15981100      -1.51351727
Al      13.34300000       1.39281994      11.99380015      -1.35828355       0.29350439      -0.58812174
O       14.07560005       5.06667994       9.66039009      -0.06002277       0.52863767      -0.27158516
O        6.09958996      10.03320002       8.14540007       0.19626419       0.60932858       0.88312234
O        7.59285999       7.04536993      17.08799997      -0.03783236      -0.01848178      -0.02970590
O       15.55390001       7.29691002      14.92929996      -0.63930906      -0.41584399       1.52585389
O        6.23273000      13.15450005      11.03169995      -0.13248872       0.94880258      -0.27781394
O       11.75179997       0.68874299      17.60379983       0.33358724      -0.13882653       0.19165700
O       11.58550008       0.99239806       3.93812992      -0.03984850       0.00812244       0.26922633
O        0.28176394       0.47404604      14.75650007      -0.00555600       0.07903565       0.19121453
O       13.96859993      11.47230001       8.80493013      -0.20674716       0.84986543       0.92399038
O        4.95131003       0.07482299      15.52780002      -0.78236895       0.45063172      -1.00049831
O        5.03327993      12.39999994      13.83369985       1.15436647       1.29978366      -0.50062910
O       14.40210003      16.23050000      11.16189987      -0.29106724       0.71979185       0.49916700
O        0.07692861      11.23809998      16.47410009      -0.69891168      -1.01256125       0.06015744
O       11.89129995       1.48309005      10.82300014      -0.78141690      -0.78237465       1.66796532
O        6.49013005       4.59320005       3.02512995      -1.56059508       2.42229214      -0.53811077
O       11.81730002      15.61879992       5.92040009       0.77758907      -0.11225854       1.32930304
O       12.13320004       0.72194593      13.41339983      -1.46277628       0.07187553      -0.41231201
O        0.14957493      15.10690004      12.72190003       0.34562007       0.09040660      -0.00420979
O        2.18982007      13.80019995       8.76121989       0.73870940      -0.51932394       0.40569837
O       10.22649997      14.88349997       3.99927015      -0.73020078      -0.88988448      -0.54791296
O        6.10221003      11.86169998       5.94009015      -0.41663559       0.14304870       0.49605430
O        6.49077995       5.06472000      15.38259986      -0.16157648      -0.21422308      -1.14963093
O        5.00809005      15.10889997       9.49107003      -0.34552361      -0.67573904       0.39099291
O       11.12700001       7.78304004       6.54682984       0.06453524      -2.62236355      -0.34965157
O        7.76097998      16.12659994      16.48700017      -0.59525968       1.60984984       0.55071230
O        6.96895008       2.42299005       8.24844010      -0.69016057      -1.23672230      -0.23387813
O        7.66792004      10.99270001      11.03739996       0.90618197      -0.40049183      -0.39886919
O        2.82326998       7.85052995      10.25649991       0.81162623       1.06150845       0.49311738
O       11.22130006      10.89939992       7.04964984      -0.51534465      -0.26527636      -0.44540483
O        5.27392007       7.59931993       3.09225991       0.60693364      -0.64238106      -0.22342347
O       15.70070007       3.40490993      15.50819989       0.73754299      -0.39291688      -0.09253915
O       14.01750006       0.89110003      15.91899989      -0.87634557      -0.35765402       0.61611833
O       11.90659992       3.22082999       8.92492007      -0.16275006       0.19291113       0.16175888
O       11.27189998       5.27615007       7.41005987      -0.39794527       0.32029074      -0.03247331
O        0.16138867       7.90999005      11.94599983      -1.17619154       0.48398147      -0.70183795
O       13.98119999       1.99263993       9.14928984       0.56275438      -0.07102327       1.43107079
Al       1.94913002       5.66599003      16.79020014      -0.46370899      -0.24940382      -0.65543243
Al       0.95158693      14.93460003      14.52860007      -0.28444138       0.04010696       0.26219549
Al       7.01672001      10.54960007       6.70949009      -1.02082609      -1.18743521      -1.08251258
Al       4.65309006       1.90218998       4.36874000       1.87592734      -1.20555695      -0.03072296
Al      10.16760001       0.88331396      11.14510007       0.91745687       0.47276823      -0.57070847
Al      12.83290006       3.96932999      10.18810014      -0.00130116       0.49872953       0.24210070
Al      11.57810000      12.42789997      12.02160003       1.43950272      -1.82629725      -1.97017649
Al       8.67626000      13.24279999       7.48391018       0.71304453      -1.39710043      -0.56227252
Al       3.89507998      15.95349996      13.90180011       1.00427409       0.45830644      -0.16014539
Al       9.64183003       5.35897003      14.19070002       0.63517969       0.58315878      -1.18562001
Al       4.65516007       1.88004000      16.02509986       0.96774613      -1.40997555       0.22390488
Al       3.91013004      11.86649998      15.18070018       0.59550852      -0.52554160      -0.93373011
Al       4.32554002      10.22950003       8.59622996       0.08341029       0.34818098       0.34895199
Al       0.61964907      11.62570001      14.83290016      -0.08386005       0.02114222       0.19423695
Al      15.27890007       6.11428003       8.97662991      -1.36855535       0.09254244      -1.91574366
Al       9.37982997       2.55586002      13.98199985      -0.20815799      -0.39508423      -0.03203696
Al      12.48519998       8.41945001       2.96154002       0.12261868      -0.41738428       0.81708127
Al      12.82219994      11.58929995       7.21853986       1.00850791       0.07017940      -0.19552440
Al       9.14492997       8.57072992       9.64054992       0.14119623      -1.01563354      -1.51397461
Al      10.59830005      16.17872224      14.30949992       0.53900444       1.65196471      -0.92809717
Al       6.08199999       4.92424997       9.39699991      -0.90413891       1.52011053      -1.63177361
Al       0.83399108      14.54700000       5.41943984       0.66601820      -0.34861460      -0.56847906
Al       6.74758994      12.25039997      14.68310010      -1.17519709       1.61826709      -0.56626671
Al       7.16568000       6.80277994      15.42170004      -0.11855562       0.05926426       1.31072690
O       15.73180000      10.38360001       6.67964009       1.10816251      -0.15974636       0.75929495
O        3.73958997       5.50735996       4.31071991      -0.07277152      -0.46701603       0.22072308
O        0.33262108       9.99398997       4.28221006      -0.50379739       0.62683779      -0.30020710
O        4.20253005      11.90300004       7.91434005      -0.37199892       0.58070820       0.76474982
O       11.04010003       5.37476006       4.61384011      -0.62805260      -0.77688131      -0.50540099
O        9.48550997       0.41853101       5.45083993       0.19349164       1.93332562       3.01812853
O        7.28434996       9.13458999       5.65571000       0.15703634      -1.98628509      -0.74252362
O        2.35860004       2.44902006      19.53450013      -1.87674403       0.22695264      -2.60637115
O        5.24847003       0.18875100       4.83692990       0.70405591       2.33541806      -0.65207138
O       10.48509998      12.08580002       3.42708007      -0.05530346      -0.49041505      -0.07476969
O        4.92241003      13.75810008       4.10002002       0.06515548      -0.06313434       0.29276431
O       10.57669997       2.90835994       5.95415017       0.38258983       0.23457668       0.95929823
O        9.83664993      12.27959996      12.12379992      -0.79313690      -0.33870499      -0.86242425
O        0.11871598       6.39967995       4.32671983       1.27568611       0.03381006      -0.25566375
O       15.70070007      11.28289993      13.58029992      -0.58812559      -0.81199065       0.84651491
O       14.94239993       5.68146999      17.46000001       0.48519670       0.40188615      -0.38310745
O       15.79260005       6.66799996       7.29369008      -0.84454109      -1.19875171       2.00006669
O        0.22633493       5.88265000      10.14200004       1.27959821       0.39010349       1.98830290
O       14.40059992       7.55670999       9.83362002       0.54039601       0.20260985      -0.05560389
O       12.87310000       7.49038005      15.84979987       0.46925118       0.66921461       0.25758137
O        4.02308003       1.17665003      12.34730017      -0.12673319       0.73653875      -0.24952977
O       11.99249994      15.40870005      15.41040010      -0.11536444      -0.59645573       0.32845205
O        4.96836994       8.19227007      12.17200018      -0.57922716      -1.22732338       1.78697099
O        7.03000004      13.71869995      15.81360009      -0.44401822      -0.63663830       0.72984012
O        0.49113002      14.84310004       7.12293016       0.70544226       0.82811343      -0.37079316
O        2.67375992       0.10386705       8.37209988      -1.19625046      -1.20298274      -0.11705116
O       13.87099999      14.81860006      13.72659984       0.16780893      -0.36555952       0.18966121
O        3.55487997       6.29686994       6.98317002       0.82242724      -0.24486712       0.50396051
O        5.00939993       9.93519993      10.38330014      -1.78411770      -0.04780708      -0.81068308
O        9.69742002       8.31086003      11.49219991      -0.33405179      -0.12593058      -0.39426730
O        6.65813997       6.08898008      12.12389999       0.03182190       1.29161805      -0.23321562
O        7.50466005       4.32978004      10.23020009       0.93275747      -0.42036059      -0.16344973
O       12.17389996       7.80543993      11.43009989       0.76164105       1.15148830       0.56614021
O        9.20001005       1.69501002       9.79245992      -0.59381654       0.04005130       1.91658652
O       15.87249994       4.52284000      12.90680012       0.75666008      -0.70902745       0.67729595
O        1.27621999       5.75203004      14.95949987       0.54528723      -1.72692112       0.64892723
Al       0.32249102      13.93660004       8.59652983      -0.57196059       1.48282890      -0.10174322
Al       0.54581808       4.21990995      14.34349983       0.44771436       0.37592987       0.98554154
Al       9.26701998       0.10821405       8.72559990       0.79047342       0.30139368      -0.14496475
Al       3.72365002       9.03608000      11.24980006       0.09058724       0.66066125      -0.87857048
Al       3.25245006       3.83226000       9.41477002      -1.18950405       1.22588589      -0.17968478
Al      15.53569998      10.92769994       8.36696987       0.73368623      -0.90376405      -0.61561529
Al       7.44340001       4.62760003      11.92840013       0.22757959      -0.68081604       0.66742847
Al      14.11619997       4.51648005      13.02869985      -1.32194142      -0.84820527      -1.17724939
Al       1.22427996       7.52352998      14.94170002      -0.24727337       0.71788853      -0.66867840
Al      13.10399998      15.63699996       4.41026016       0.29692908      -0.55264822       0.13851593
Al       0.60663293      11.27560001       5.43409996       0.79937650       0.88739605       0.62490757
Al       8.57000995      14.72410001      15.90730000      -0.99960008      -1.28522566       0.04994165
Al       7.93941003      12.68239996      11.54609982      -0.14493102      -1.23169722       0.00948274
Al       9.05970993       8.33532994       6.20164015       0.04664920       1.30310197       0.46973863
Al       5.48474999      13.36500007      16.99319994      -0.52408736      -1.21733383      -1.67432938
Al       4.51180997      15.97860008      11.10000000       0.59836700       1.47680278      -0.73206153
Al       6.16877997       0.88688001       8.79125011      -0.28573265      -1.14296357       0.54826310
Al      13.16319992      12.60460000      17.39810014      -0.11122191      -0.40463440       0.37652995
Al       6.01665993      16.05540008      16.95329986       0.05632135       0.38823863      -0.22747830
Al      15.14120002       6.38457006       5.54081997      -1.01080593       0.19747654       0.67559125
Al      15.58670004       1.55613001      16.05739993       2.08970449       1.85956482       0.16356244
Al       4.69723002       4.86903005      15.45619998       0.47425607       0.48628528      -0.55174704
Al       7.28902996       5.34196995       6.15637002      -0.19043954       0.77427292       0.48122530
Al       4.60491006       7.51852007      13.90009990       0.97912853      -0.30208708      -1.24801260
O       14.65540006       2.63011002      17.75730018       0.12891126      -0.19532904      -0.64406515
O        8.31385001      11.38390008       7.30481997       1.74405766       1.70051214       0.70357207
O        4.17965993      10.00270008      14.83420007       1.95990135       0.76154296       1.82444715
O        3.09439005       1.55969005       3.68500991      -1.01367466       1.25910796       0.37161161
O        1.59275999       1.86667997       6.82597989      -1.15821750      -1.18655803       1.01339809
O       13.43370002       5.88434994       5.29220994       0.84969513       0.43579725       0.17843512
O        6.33492995       6.39268994       5.11554985      -0.21239129       0.73222850      -0.11950122
O        9.14239006       4.17046008       8.21660017       1.61604192      -0.01660474      -0.31623258
O        8.59858995       9.30173002      18.75790011       1.88887008      -0.04884311      -0.55252232
O        0.30553403       2.34474994       4.49021985       0.52977036       2.31261194       2.26677465
O        5.99073999       9.32597993      17.40069996      -0.27493310      -0.25416586       1.46611653
O        5.93501001       8.00545006      14.91950008      -0.05884976      -0.70539247       0.11932973
O       13.52189996      14.16340000       3.59569995       0.03103660      -0.14079732      -0.11468997
O        2.98985002       7.90125002      14.29940017      -2.48463622       0.35019139       0.35179248
O        9.64725993       1.17040000      12.82430007      -0.09660190      -0.00767323       0.44410270
O        2.53835996       2.22934995       9.64559000      -0.31901061       0.31076320       0.09901641
O        9.07442992       2.17885995      17.80379987      -0.44783598       0.32681826      -0.30096591
O        6.14292004       2.05817006       3.30398014       0.48614307       0.34894145       0.84350742
O       12.97959997       1.92660005       6.14336008      -0.19556553       0.24636933       0.69134663
O        9.98028994      10.13840003       9.81715018       0.21139023       0.12723495       1.61771744
O       16.23219994       9.09519003       8.84534002      -0.24808288       1.82328900      -0.29885827
O        2.50575993      15.39920005       5.24834995       0.18180082      -0.71832382      -0.40558974
O        2.91637007      15.07240007       2.37735997      -1.21152258       0.88511436       1.29657406
O        3.39293993       3.65964000      11.89330011       1.41026422      -2.20920866      -1.16563876
O        8.51403006      13.91850001      10.38059988      -0.61879931      -0.44289517       0.77588902
O        9.87480994      12.54190001       8.73818018       0.07235516       1.54678337      -0.17417776
O        4.52345006      12.82320007       1.49868008      -0.24706687      -0.83214599       1.02348678
O       11.99239994       3.11457002      16.70340007      -0.32619585       0.24692315      -0.22521588
O        6.08980005       1.70929002      17.20779991       0.31175933      -0.69087517      -0.90397347
O        4.80422005       3.23505000       5.63052988      -0.04112558       0.14817757      -0.81460974
O        9.86263995      14.29750000      17.04059996       0.74863537      -0.55950101      -0.06636390
O        7.39928004       8.44689006      10.10120000      -0.95160243      -0.37111532       1.09132321
O        8.57342999       6.57460004       6.76468991      -0.24320251      -0.11982326      -0.41624770
O        4.52439995      14.44430007       6.75983982       0.09155069      -1.23790231       2.14002784
O        0.39423997      12.22800008       8.69524009      -0.54275071      -1.80933046       0.30569873
O        3.59978999      13.15359992      16.42200011      -0.39832486       1.12952094       0.82433344
Al       9.73496005      10.22129998      11.62230012      -0.59046366       0.92229946      -0.16826235
Al      11.88729992       4.60199000      15.48280003      -0.79994150      -0.66328322       0.25896316
Al      13.79079995       7.13417993      14.41519995       1.46931993      -0.33742738      -0.52979418
Al       6.14499997      12.35310007       4.22900017       0.12967310       1.32052704      -0.67053461
Al       8.25503006       3.03974004       9.20430002       0.69133216       0.55262623      -0.38077989
Al       9.71680993      13.05749993      13.73080015      -1.40410185      -0.28582636       1.16797800
Al      12.61330003       5.30758006       3.58142998       0.28773497       0.97451881       0.48584204
Al       9.84552004      10.83470000       8.13056010      -1.01352238       0.62865710       0.36522124
Al       4.28945995      15.08400001       5.12257007      -1.09034622      -1.23409107      -0.40051410
Al      12.92169998       2.11641004       4.15541999       0.93861392       0.63798395       1.24165731
Al      13.28540001       6.56568001      10.80889986       0.73994169      -0.02806337       0.00797936
Al       6.06522999       8.12774006       4.64801008      -0.21818069       1.38106583       1.58345443
Al      12.22410005       1.41087006       9.10269986      -0.52537565      -1.15815892      -1.50383438
Al       5.39590000       5.83923001       3.57726013       0.27339036      -1.18074581       0.21760009
Al      15.01180001      10.52690003      17.47729984       0.13368069       0.06794005      -0.26393906
Al       2.05170996      16.22860006       3.34713995       0.81775828      -1.54366871      -0.56558499
Al      15.65679994       7.15444005      16.87559987      -0.46682836       0.29169260      -0.24515000
Al       9.98508002      15.03839993       5.85992993       0.77384025      -0.54352950      -0.83684217
Al       0.69879306       8.30235008       4.51156987       1.22081963      -1.20062560      -0.17190902
Al       5.73084002       9.82070999      15.83830014      -0.49979422       0.06191683      -1.97736224
Al       9.55334003       7.83546997      13.25030011       0.32830102       1.75503094      -0.91350002
Al      15.64199995       9.34901004      13.14569983       0.02957124      -0.51882141       0.15154446
Al       3.49022005       4.73790994       5.97264983       0.70228920      -0.55491386       0.24068538
Al       3.32399999       7.90714006       6.33813003      -1.17083187       1.75228264      -0.55198842
O        2.65576996      15.62410007      10.93829990       0.37774789      -0.39107590       0.98616202
O        4.86585000       3.16348007      14.88179987       0.70997412      -0.04717087      -0.09247989
O        2.29066998       7.65971008       3.71651009      -2.17977782      -1.07764638       0.07399234
O        7.73554003       2.41417002      14.87500011      -0.24589902       0.07955944       0.69618101
O       13.32700006      10.43650000      16.97310015      -0.32467172       1.03080933       0.11582882
O        1.01182992      12.64499993      11.76699990      -0.04948764      -0.09800125      -0.72367661
O       13.24960008       9.66422993       7.05546988       1.13910066       0.12368390      -1.18214111
O        2.85607000       1.11132005      14.38470018      -0.07064317      -0.41874782       0.15317541
O        8.37647001       0.32946607       2.80375995      -1.60812410       0.34935945       0.29751043
O        9.98532002       9.38311002       5.00365015       0.86963646       0.58005577      -0.21110105
O        9.74671997       9.22339999      15.99410007      -0.00088490      -0.58024107       0.51166630
O       11.90149993       5.45184997      10.81960007      -0.05510049      -1.18437818      -0.57572321
O       10.73810002       6.01208008      15.53300001       0.06238998      -0.09813068       0.77488034
O        2.88556006      10.20249997      12.26190009      -0.66089542      -0.08949316      -0.22836442
O       11.16619998       9.26245005       2.40625997      -1.03458761       0.88582295      -0.51777106
O       11.70449994      10.56339993      12.04120016      -0.27565185       1.03906624       0.58592205
O       14.28849998      14.76760000       5.91653989      -1.05253286       0.53250918       0.14685452
O       15.23190003       0.70277894       7.35327006       0.48230321       0.37348528       0.64501617
O        3.56344992       3.48359995       7.66251016       0.04209751       1.17580744       0.12443929
O        1.14199998       4.29951001      17.66179998      -0.50735680      -0.31301124      -0.51018100
O        1.23791998       7.32706005      16.87709993      -0.46039613      -0.10762808      -0.31648316
O        5.67866992      10.93619997       3.42566993      -0.53474024      -1.16631035      -0.18190587
O        3.53432002       5.09728996      16.62420002       0.22914902       0.37701318       0.92781383
O        9.25560004       3.02004005       3.27944000      -0.13592169       0.42989958       0.69669321
O       12.67120002      13.31519997       7.75669015       0.27325688       0.92940871       1.19480721
O        0.78903293      13.68700005      17.84150008      -0.72490211      -0.13655137       1.48916214
O        3.72259998       8.65102997       7.98582986       0.28441963      -0.36824329      -0.46583376
O        4.81372006       1.28655004       7.68616992       0.62311352       0.60766727      -0.07791500
O        4.90413000       3.72146001       9.85650999       1.57688255      -0.38103372       1.40973011
O        9.37877993      13.39980003       5.85757016      -0.31774042      -0.18066586      -0.10930879
O       10.30080005      15.62030004      10.18530018      -0.15186903       2.10073378       0.65212154
O       14.42040006      13.10620007      11.36329989       0.59317818      -0.28813226       1.00121022
O       13.28330008       5.14892999      14.52920017       0.57801663       0.05645275      -0.84758405
O       12.95810005       9.43270997       4.38306001       0.13774193      -0.44438373       0.92269239
O       12.96009998      16.03439998       8.73502015       0.32862869      -0.64750143      -1.34718377
O       14.18970008      13.36769998      16.07489990       0.35189329       0.59351431      -0.51116398
Al       2.25055996      12.07779997       8.15910004       0.88152004      -0.78062301      -0.28750022
Al      13.37419992       0.16542903      14.44109983       1.10316156      -1.13920972      -0.07169520
Al       2.68153999       9.72020998      14.05150009      -1.05580118       0.26935538      -1.34498743
Al       3.58381997      14.78369994       8.24768989       0.10785310       1.85018531       0.54128609
Al      15.59520007       4.11496993      17.27190002      -0.56987135      -0.80460119      -0.02382989
Al       2.58533008       2.20815002      12.95809985       0.81889421      -1.13950071      -1.30140660
Al       2.11555007      14.29929994      12.01220009      -1.17339825      -1.16274502      -0.39533489
Al       5.48464999      12.93450003       7.16565014      -0.83140730       0.00457137      -0.71475372
Al      11.85530003       6.17272000       6.02140994      -1.01616412       0.90734458       0.08600920
Al       1.80373007       0.74651599      10.28810016      -1.31744040       0.31492354      -0.86333730
Al      15.77669994      12.99210003      16.91499993       0.02405971       0.22965374      -0.23889470
Al       6.66038997      10.08849993       9.88934016       1.37749807      -0.06372957       0.01752317
Al      12.25340003       9.08882000      12.75550000       0.88110843      -1.74361187      -0.49147915
Al      10.30130003      13.94240001       9.76702018      -0.52990751      -2.13979317      -1.12075186
Al       9.85924998       3.88868995       4.71667998      -1.27602068       0.33470616      -1.28097084
Al       3.72146993       8.56277995       3.33057983       0.58545674       0.43593100      -0.45465057
Al       3.04193004       1.72705999       7.82233999       1.04641831      -0.04401839      -0.00091095
Al       3.00576005       4.88463001      13.00920016      -1.12397289       0.55622540       0.15149586
Al      10.60589995       1.91013004      16.92449994       0.89428443       0.27736278       0.16051665
Al       0.68742905       0.33799505       7.56825983       0.75243670      -0.02296008      -0.60345674
Al       6.62021003       0.35142597       3.04278004       0.27463728      -0.93114062      -1.02613699
Al       4.97788002       2.60467007      11.45619992      -0.86296520      -0.75972317      -1.14361262
Al      15.58300000       8.75204996      10.42079983       0.02433952      -1.73907506       0.49177190
Al       1.97372008       2.68607999      17.88320008      -0.06092786      -0.06875508       1.48097400
O       16.19605661      12.94579997       5.13184999       0.42033295       0.04517759      -0.80764517
O       11.92580008      12.64050008      16.02260013      -0.81405333      -0.42130581       0.59445537
O        9.15121008       9.15372008       7.85600994      -0.38881896      -2.20273348      -0.66552451
O        9.44724005      14.76120006      14.33829984       0.49789263       0.96117053      -0.08380982
O        5.41601005      11.70100006      16.21830014       1.09653605       0.72476905       1.13548812
O       15.38299995       3.65215001       6.99536014       0.70725157      -0.60910984      -0.17129226
O       14.89500007      14.44390008       9.13677012       0.89178397      -0.81390568       0.16391447
O        1.63731002       4.26328002       2.74961999       0.24232173       0.91610191       0.66510974
O       13.92180006       8.76070007      13.54199998      -0.45956135       0.48936382      -0.78945960
O        1.92421005      15.38420007      16.04269992       0.65644478       1.31176824      -0.06874167
O        1.92883997      11.73050004       6.48720997      -0.24607287      -0.37299444      -0.09275486
O        8.55833002       6.90657008      14.34010013      -0.70866308      -0.70755335       0.93418193
O        7.13341003      10.58669995      14.88970011       0.39235418      -1.77446908       0.98837236
O       10.59559998       3.77113996      14.52050004      -0.19817309      -0.05618751      -0.07895155
O       13.19780005       3.70184003       3.58020985      -0.50359923      -0.27048433      -0.57905873
O        2.31608994      11.48389994      14.48199995      -0.78933687      -0.07468336       0.41687825
O        2.80707004       5.57574008       9.36101986       0.05079682      -1.17302658       0.66807523