360
Lattice="16.24082323 0.0 0.0 0.0 16.24082323 0.0 0.0 0.0 36.24082323" Properties=species:S:1:pos:R:3:forces:R:3 step=0 confid=0 wdir=cand0 selection=->scf energy=-2572.74072841 free_energy=-2572.74072841 stress="0.021196726727320876 0.0007045929364743356 -0.0014282597687996423 0.0007045929364743356 0.023026259565302482 0.0005333111149589433 -0.0014282597687996423 0.0005333111149589433 0.019612446001309174" pbc="T T T"
Al       6.65648005       2.05752992       6.37493005       0.86539551       0.84666086      -1.38558477
Al       1.49153999       6.71731005      10.08160014      -2.08384478       1.94230791       2.86051742
Al      11.02200002      15.18449995       2.58944016       2.42217468      -1.51676888       1.14540333
Al       3.66843005       1.70264000       2.28533000      -0.76798277      -1.94546656      -0.75566135
Al      15.50160007       2.78570997      12.62329990      -0.56618225      -2.40883924      -0.86998295
Al       6.89576000      10.14590001      16.27150013      -2.17163453      -0.55296603      -0.94496455
Al      12.99250007      10.78499996      16.32310017      -0.00782005      -0.44874213       0.91750486
Al      11.44350005       8.52621002      15.38749983      -2.02648565      -0.74440162       1.66631393
Al      10.53359997       4.72128998      12.28790014       1.99122633       0.55875915       0.96539869
Al      14.39670000      11.62629994       5.01618983       1.44336758       0.93186550      -3.55900235
Al      11.89639993      12.58510000       4.39344999      -1.11687897       1.36339214       0.04442996
Al       2.42027000       4.23396995       5.65897990      -1.20441067      -0.50875899      -0.97433935
Al      14.31460004      15.81190000       8.84824990       3.14174771       2.13688652      -1.70255320
Al      11.24360004       1.04594004       6.18251991       0.18453826       1.50799457      -2.75386239
Al       0.40212701      12.12139997      10.31210011      -0.41063700       1.30547481      -0.21523606
Al       7.97130007       8.76213997      13.63699994       0.44206268       2.70282336      -0.08901431
Al       1.96136005      12.26310002      19.18019983       2.57499475      -0.86974057      -0.10829321
Al      14.89839998       2.31190003       7.54634001       0.86072984      -0.46656112       0.05044802
Al       5.73009001      13.80549993      12.20240006      -0.82911495      -0.28826129       0.41714667
Al      12.02620000       7.00601992       7.98048985      -0.37816645      -2.25755824       0.49620745
Al      10.31860006       9.51315007       5.37921017      -1.67909368       0.58033139       0.24209056
Al      11.81000005      15.55790002      14.64650003      -0.97431820      -0.42937946      -2.46685273
Al       5.72206997       7.26180996      11.35620004       2.42695901      -2.77260942      -0.97616064
Al      13.18319998       0.43110502      11.99080005      -1.92620262       0.57061291      -0.38596309
O       11.95500007       4.68959000      11.01309983       0.75779258      -1.20756474       0.53004623
O        6.53344006      10.32490003       7.90049004      -0.75589655      -0.81302269       1.86324068
O        1.69480006       7.46017992      18.66850007      -0.20722236       1.36959048      -0.68568683
O       15.33870007       8.44804002      15.74720015       1.70013223      -0.63977904      -0.76467945
O        6.17636997      13.14340006      10.34420005      -0.90326258       0.06342769       0.91247262
O       11.09010006       1.89303003      17.81879990       2.06379081      -0.11456517       1.29994272
O       14.34790006      15.25530003       4.11175008       0.78238892      -0.22977475       0.66935200
O       15.34599999       1.09133996      15.46299998       0.45748656      -0.47280404      -0.39652332
O        0.31354907      12.03249998       8.53064982      -1.88935973      -0.75900345       0.83752050
O        5.11397993       0.94588601      14.06490005      -0.31245410      -0.93352521       2.12948863
O        5.31572993      14.09209995      14.31010002      -1.31781534       1.56145300      -2.77216978
O       14.18059993      15.29699997      11.29659983      -1.08042749       0.69528470       0.25819714
O        0.06064453      12.04950006      15.81979994       0.58585805       0.85870693       2.39890533
O       11.99429994       1.41319994      10.83510013       1.55536696      -1.40541322       0.62023164
O        8.38447002       5.53038002       3.64106985       3.57890569       0.29482785       0.94824699
O       10.87009992      13.55009999       3.36073005      -1.12435070       0.72949773      -0.95077345
O       11.69239992       0.08047636      13.05209987       1.49198257       0.35890154      -3.13993545
O        1.23897002      14.73000002      11.32230001      -1.37725137       0.68586781       0.55102076
O        1.44607007      13.96389993       6.99444989      -1.44069140       0.78082167       0.33184667
O       10.67010003      11.32770006       4.71177996       0.06834857      -0.93268499       0.16887708
O        6.40192999      11.53289994       5.79719008      -1.05829178       0.72003716      -1.01927010
O        5.49111994       5.47794993      15.30989990       1.28348815       0.25926834      -2.07379105
O        4.89727992      15.15520004       8.90601016      -2.71565081       1.97126773       1.13172462
O       12.40419996       7.68864998       6.31412991       0.71856422      -1.13405677       1.82744659
O        7.89402997      15.01939996      17.56570015       0.58404778       0.95632622       0.35249521
O        7.26133005       0.63583408       5.58306988       1.73127912      -1.28633874      -0.94217982
O        7.79900995      10.83600004      10.59830005       0.20155176       0.02333463       0.57330994
O        2.71568993       7.97090996       9.62490017       0.95408333       1.86314719       1.87246053
O       13.36769996      12.02729999       9.13638003       2.66775123      -0.31018040      -0.60356575
O        6.57911007       7.32462005       2.83997007      -0.54948878       1.20520999      -0.71000931
O       15.34859999       4.01972003      16.59109997       0.46414243      -2.36379407       1.94841732
O       13.86569995       1.90250996      17.72659998      -2.74177202      -1.39259446      -0.34478406
O       11.94169997       3.10850006       8.73512997       0.14190105      -2.24301960       2.82919491
O       12.42830005       5.16972997       7.73828010       2.03355825       4.49074171      -0.76965526
O       15.79670005       8.27982000      12.79249997       1.18830834      -0.34374602       1.35078881
O       13.64819992       1.33645004       8.50640000       0.60618796      -2.71090026       0.30629496
Al       2.00503000       5.95842998      17.55569986      -0.90017753       3.99933124       0.38590247
Al       1.38374997      15.39219994      14.29349991       0.45268740      -0.41631826      -0.67574761
Al       7.69742993      10.47540001       6.37825986       2.10802262       0.01066858       1.66060038
Al       6.65264998       0.84213297       3.74927987      -1.06368236      -0.58459385       1.81268483
Al      10.42229999       0.54005999      11.49000007      -1.06104742       0.37742382       1.82857847
Al      13.23839994       3.60127993       9.89166995      -0.85518121      -0.33521843       0.21064726
Al      11.05310006      12.42150001      12.65460001      -0.45399877       1.48173259       0.11536588
Al       8.63517994      13.54750000       7.30328984      -0.48101382       1.11779920      -0.67806823
Al       4.54614001      15.56210006      13.74969984      -0.17208223      -1.02064935      -1.96523918
Al       9.26175999       6.41194003      14.72389992       2.56278108      -0.08705402       0.91792977
Al       3.56373992       1.84797994      14.17619997       0.68986431       1.56329787       1.54118198
Al       3.49009997      11.25810001      16.28949986       0.99088688      -1.88538830       2.26155711
Al       4.66262000      10.86419996       7.87527984       0.72670819      -1.31999806      -0.14122084
Al      16.20130005      11.98879998      14.07350000      -0.52498039       3.33556678       1.30823690
Al      14.70259997       7.74972002       8.97083014      -0.06135653       0.39693083      -2.67142308
Al       8.52987996       3.43980993      14.23370002       1.36457995       0.69552064      -0.63714287
Al       9.65744004       6.29419000       4.68222014       0.93375348       0.18364602      -1.21792782
Al      12.76270006      13.00309997       7.79585989      -0.65190641       2.67310790      -1.11019259
Al       9.92656006       8.31748994      10.05330004      -0.16670292       0.43199081      -2.25739467
Al       9.11159994       0.49894992      14.34749983       0.33763150      -0.44799494       0.85712480
Al       6.26008995       4.80779997       9.00077013       0.66869009      -0.20771309       3.18355662
Al      13.45900002      15.17350004       5.72091982       0.65199341      -0.63455910      -2.01099483
Al       5.78425007      13.29690004      15.72739998      -0.98911571      -1.89669376       1.05747496
Al       6.26519006       6.87421995      14.25979994       1.61159000      -1.88755145       2.12075900
O        1.07120994      11.00699999       6.09470984      -1.80354588       3.03688695       1.81393548
O        6.28958995       4.34897999       3.51548017       1.44346696       1.05558421       0.03111322
O        2.37182996       9.85600993       4.50987001      -1.08791502      -1.29638639       0.83854226
O        4.05719005      12.37769997       7.11666011       0.49901142      -0.66941302      -0.12009597
O        9.14425000       6.06222005       6.32479993       0.37652116       1.17169143       0.30763949
O        9.92709000       0.68671495       4.97314987       0.35504944      -1.37314763       0.56736725
O        8.82788006       8.91359994       6.51601992      -0.22057463       0.58146398       0.70083110
O        5.44893992       1.90866994       4.82904005       0.05357677       2.35882025      -0.11283480
O        7.16343004      15.11539996       3.90967016       1.60764014       2.92218412       1.40976119
O        8.37458992      10.55189997       4.56250003      -1.59185217       0.65837202       0.30268590
O        5.25864993      13.04210003       3.88688990      -0.63976139      -1.66380193       1.05775592
O       11.49350002       3.00744008       6.10550997      -1.01926896      -1.08584510       0.16428865
O        9.63867003      12.60430006      11.41530012      -0.79100222      -2.11864882       0.49112780
O        1.15384001       5.33027992       5.86905998      -0.61172064       0.42861143      -0.76608143
O       14.84020002      13.23739999      13.62079993      -1.85138893      -1.81906228       0.29319470
O       14.92189997       6.88042005      17.77919992       0.74680050      -0.99389028       1.75710225
O       15.47060008       6.69345001       7.67223990      -2.07190934      -1.90925681      -0.59781268
O       16.00079994       7.64421005      10.04760008       0.88460266      -0.61022663       2.61480979
O       13.05600007       7.27007004       9.52160983       1.40248221       0.86683389      -0.96779915
O       12.74620003       8.62064992      16.53959995       1.14683895       0.92967928       0.19089101
O        3.55680005       2.26005006      12.51860016      -0.70967739      -0.80115818      -0.37035656
O       13.47130001      15.08680003      14.91189991       1.49765203       0.21611412      -0.59891571
O        4.06792994       7.52794996      11.78719983      -1.70901521      -0.23158333       2.21753733
O        5.16571994      14.14409998      17.08380013      -0.48663660       1.97860033       2.65832513
O       14.73279994      15.41689996       6.87778996       1.12763416      -0.16313716       2.58436584
O        2.56567994       0.39905408       7.08249009       3.72750807      -2.71923719       1.12705871
O       16.03240004      15.63179999      13.53559993       0.90902212       0.23332671       0.03717363
O        3.81336998       6.29314003       7.25039998       2.02192230      -0.19025868       0.34990595
O        5.73037000       8.62880996      10.33029989      -0.36327187       1.24470930      -1.30976294
O        9.05413000       8.94885000      12.01160010       0.26529103       0.33854861      -0.15822268
O        7.01862994       5.25232007      13.19189993      -1.00665902       1.83768280       3.87608946
O        9.04109999       3.85350008      12.35550015      -0.96984990      -0.98921924       0.84860542
O       11.18980004       7.78396997      11.16260011      -0.37832894       0.70942918       0.91146640
O        9.62817992       1.57551008       9.96537002       1.25108764      -1.57780348       0.31095432
O       14.60129994       3.94610006      13.74129994      -0.67317508      -1.82175254      -2.62823168
O        0.01914712       5.73258996      14.29540002       3.89241875       2.29475228      -3.16154770
Al       0.29552598      15.71750006       7.11651007       1.55638187       1.05555322      -0.60813045
Al      15.21530002       4.73042999      15.05569988      -3.44605962       2.04423599       2.55153329
Al       9.16673997      16.16639998       8.90790012      -0.63840347       0.40671099       0.66508813
Al       3.92164008       9.02274997      10.61219985      -0.22313332      -0.24729147       0.22031614
Al       2.84662994       4.23761000       8.93993013       0.45986278       1.10314192       0.74996036
Al       0.30962707      12.60610003       6.86735006      -0.24141560      -1.64729550      -0.97235291
Al       7.20591993       4.45942002      11.68550010       0.54997331      -1.37353865      -1.37624942
Al      13.31380008       4.55442007      12.38699995       0.24428492       0.26071666       0.89101431
Al       0.39693904       7.66687006      14.62890004      -0.30854552      -1.08312229       1.33287834
Al      16.12029992      14.66950003       4.07486018      -0.13782256       0.61405944      -2.52357339
Al       0.93116403      11.32980000       4.26905989       3.14259293       2.12457435      -0.34001079
Al       8.78472998      14.51680008      16.14739995      -1.19513732       0.69641085      -0.69873537
Al       7.77868001      12.59070000      10.72709994       1.71599808       1.11186580       0.69226970
Al       8.72583995       7.40365000       7.77186013      -0.35739870      -1.07531856      -1.59546515
Al       3.96100004      14.47830007      18.45840006       0.43889648       1.41895383       0.10745955
Al       4.39791992       0.00638362      10.40549996      -0.61811378       0.13095864       1.45874459
Al       6.36487997       1.14757998       8.89280002       4.44651872      -0.22268567       3.42804724
Al      11.60380006      13.81250005      17.16730007      -0.14844632      -2.67801941      -2.07445938
Al       6.39910994      15.78440007      17.69419996      -1.59053848      -2.68779038       1.63727303
Al      14.45179992       4.93852999       7.14898004      -1.31425453      -0.08633648      -0.59153271
Al      15.35290007       2.09307004      16.72739990       0.51524743       2.63697984       2.69115128
Al       3.81364997       5.04715999      15.72380018      -1.60625731       0.16609441       0.44059351
Al       8.05209004       4.78438006       6.95049992       0.17818327      -2.00583879      -1.56962604
Al       3.62836995       7.42243008      13.60449989      -5.15543920      -2.59486153      -3.67846066
O       13.57000004       4.29170007      18.87229997       0.04437698       0.17125031       0.25961166
O        8.90511005      11.79929995       7.18672014       0.67623047      -2.97542264       0.42134701
O        3.18898000       9.31765993      16.89309983       0.38984507       2.01640690       1.02935366
O        5.19334006       0.68009308       2.66758009       0.30339165       0.22081915      -0.11426063
O        1.54776994       2.64311002       5.36205993      -0.52118688      -0.89573296      -1.92325273
O       14.88519993       3.39556002       6.00764018      -0.46147914       0.43835666       4.16401194
O        6.29262000       6.43399994       5.64068010       0.95783814       0.13089295      -1.44445989
O        9.55403001       4.01154002       7.99378987      -2.44944328       0.18214760       0.74826972
O        3.64846992       6.58293007      16.85809989      -0.08832818      -2.08349682      -0.08092632
O        2.09344000       1.18023004       2.93208011      -1.60881633      -1.05020123       1.38324177
O        2.51276994      10.50859998      19.58569986      -0.31046862       4.02366634       0.75967529
O        4.72584001       7.80399994      14.71469982       2.27127592       0.82566385      -0.86053526
O       13.40649993      12.34610004       3.70070013       0.63386552      -1.42393892       1.99498696
O        2.08417007       8.32950994      13.91400015      -0.09796357      -0.35760292      -0.31892148
O        9.09927007       0.55813197      12.71660009       0.73888773       0.47851372      -3.20571027
O        2.62840005       3.70440997       7.26481984       0.11876316      -3.40504799       4.09067720
O        9.54230998       2.12602007      15.03109997      -0.23774961      -0.04770931       0.30448482
O        7.91398994       1.93758007       3.07748989      -1.63494036      -1.00567129       0.44170473
O       12.82800002       0.51298394       5.31165003      -2.49516125       0.65083110       2.64766181
O       10.18630004      10.08470004       9.57052009       0.16807616       0.86285688       1.73770467
O       14.33449992       9.38211001       8.09385005      -0.35091562      -0.23088375      -0.28496926
O        3.41900999      14.36819996       2.10093996       0.34765706       0.30029410       0.87915006
O        6.08649001      14.44779997       1.61782985       1.99081464      -1.65692322      -2.43372695
O        2.63552003       3.43802003      10.65720008      -0.21594529       2.38848374      -3.28292164
O        8.76276995      13.50479995       9.27829982      -1.24127463      -1.19801362       0.74808501
O       11.02310001      12.74259993       8.35080003       1.43602578       2.22923640       0.97054245
O        2.67716995      11.55909996       2.86281991      -0.42588669       1.55654969      -1.31355317
O       11.86310007       4.06701997      16.57210000      -0.68535307      -4.97046971       2.12103024
O        5.53568996       0.86969397      16.93270018       0.47095163       1.19954618       0.31519926
O        6.09885999       4.15499992       7.39510016      -0.56094107       0.06723300      -1.90657270
O       10.00020002      13.35279998      16.66589995       0.87664780      -2.00858759       0.91002908
O        8.27235004       8.34351992       9.28307998       0.12762993      -0.59012600       0.38683360
O        7.60576997       5.85703007       8.24870999      -0.06583324       2.19204320       0.63925791
O        4.56452007      14.59330004       6.18275982      -1.55343360       0.79142064       0.24981100
O        1.98369995      12.28689997      11.02209987       0.45590316      -1.14844971      -0.57138430
O        2.49875995      12.45340008      17.12070017       0.97864961       0.42442643       1.59412276
Al       9.51891004      10.62860002      11.31909994       1.32054812      -0.23804995      -0.70040766
Al      11.90890000       5.26617999      15.42960007       0.09826677       2.89099493      -2.64084291
Al      13.99489992       7.43972997      16.38290007       0.50958119       0.99912530      -0.40572528
Al       6.53833001      11.29020000       4.04125986      -0.50062740      -0.56587215      -0.64733560
Al       8.89850994       2.91127995       9.22857995      -2.83737605       0.54168781      -1.15593180
Al       7.98697003      12.21530003      14.09239995      -1.69356403      -0.15107689       0.14743589
Al      14.45299995       3.54391994       4.30873997      -0.93738775      -1.34430565      -1.93231958
Al      10.43210002      11.21080007       8.13114005      -1.91688435      -3.91143411      -1.45153332
Al       3.45407003      13.13110007       3.30076997       0.49128221      -1.21188393      -1.15018921
Al      13.58950007       0.76893493       3.66338984      -0.05266203       0.42378155      -0.36375051
Al      12.88529992       7.67036996      11.43369995      -0.00273926       1.72938942      -1.65758160
Al       5.39924999       8.48734005       2.69234997      -2.40729297       0.30505668      -0.78968675
Al      11.65900002       1.36244997       9.05450005       1.07244298       1.36029218       1.10497433
Al       6.82917993       6.10292004       3.96293982      -2.73254620      -1.27961851       0.48521034
Al      13.19329999      13.16229999      14.58129989       1.52116945       0.57278126      -1.02799576
Al       4.86295998      15.45829993       1.74486010      -3.84272322       2.22965301      -1.00006244
Al       0.19879092       7.94859995      17.47260001       0.46983128      -0.78140034      -0.94787163
Al       8.52385997      15.61810005       5.32267014      -1.03453557      -0.33041372       0.98604199
Al      15.04280007       6.25677000       4.06883007      -0.32709393      -1.42073629       0.18360370
Al       4.32966997       8.09820992      16.34569995       1.67639684       1.10170138       3.41381906
Al      10.45099996       7.97648008      12.81040003       0.64328796       1.43457248       1.40655112
Al      15.50930001       9.85392996      12.01330016      -0.53782571      -0.95190050      -1.02732321
Al       5.11491004       5.50388994       6.40188996      -1.20456876      -2.07795640      -0.34244781
Al       2.11838006       9.66653003       6.18281998       2.18449399      -1.34783298       1.18682331
O        2.67398999       0.56449204      10.48179994       2.92072371       0.68055390      -0.34299979
O        4.21208999       3.44224995      14.89419989      -0.93261087      -1.30593613      -0.06126686
O       13.83649993       7.49335993       3.66636014      -0.36228405       2.52886560       0.10169555
O        6.92609006       2.87755003      14.73670018      -0.22641543      -0.09637361       0.39143176
O       13.42280004      11.06690005      14.53709986      -0.49384792      -0.77832465      -1.86484225
O        0.96322796      13.36980006      13.60169993       2.48653840       0.60991259      -0.86669206
O       13.64939996       9.90233005       5.32517003       1.35363235       1.05392594      -1.70450751
O        2.32048996       0.88317207      15.04780010      -0.82658220      -0.84059099       0.66767134
O       12.34600000       0.02714930       2.59873013       0.27108617       0.15142645       0.12176373
O       11.49789999       9.94130998       7.09092985      -2.28709556       2.12188989       0.10908252
O        6.03272005       8.62296002      16.76910004       0.05373191       1.90879147      -0.60805620
O        9.53808997       4.69367002      14.95550016      -1.10219786       0.33717249       0.39781134
O       10.85100006       6.78043001      15.84650001       0.43542020      -1.09574565      -1.69071534
O        3.35355996      10.25479993      11.96499984      -0.11652055      -2.62628321       0.89339409
O       10.55400007       7.95356996       4.49542986       0.39386247      -1.10949577       0.20493848
O       11.26000002      10.64269998      12.33340013       0.02281882       0.29481703       0.20329032
O        0.59318697      15.98409999       5.13071011      -0.25142197       0.68020201       1.31968264
O       15.18510005       1.89127992       3.75979986       1.01004441      -1.20274158       0.55895072
O        4.55919000       4.10878000       9.66275987       1.44089452       1.65148433      -2.24267146
O        0.73640294       5.02259996      18.70339998      -1.11413294      -2.82195024      -0.35644151
O        1.09512001       6.85425998      16.21290017      -0.88635075       1.50382386       0.44800662
O        5.33325995       9.98687994       3.66238996       0.73276587       1.02739219      -0.14159275
O        2.29541998       4.43384008      16.82409984       1.55335024      -2.21775263      -0.67909496
O        9.86263992       3.02730001       3.40385010       2.48074670       0.59697478       1.17428543
O       12.22730004      13.87879996       6.14212987       1.54430252      -1.30499486       0.12839137
O        0.34288000      12.72659996      18.48820016       0.82719970       0.21369869      -0.58097171
O        3.71510001       9.55865994       7.20493007      -0.89556404      -0.92648788       0.03369139
O        5.54025996       1.02654005       7.48457006      -2.07795203       0.47527459      -2.02903688
O        7.57712993       3.67108007      10.14280001       0.01584310       0.00365599      -1.66771276
O        8.89199997      13.75190002       5.36655016      -0.20366514      -0.71034750       0.14565644
O       10.40799994      15.48540001      10.27110014      -0.57113335      -2.19714436      -1.38367711
O       11.66699993      13.68369993      13.73089991       1.42286369      -1.11961031       0.30911950
O       13.73569996       5.94321005      15.55480016      -1.15965079      -1.57326600      -0.84223722
O       13.61989997       5.49751006       5.03160994       2.10968089      -1.39186377       3.22912576
O       13.08119998      14.66709996       8.90918993      -0.22639735      -2.79743095       0.35292184
O       12.58049995      12.66000008      16.19589996      -0.46270486       0.88297402       1.41816733
Al       2.98117997      13.62720005       6.18061002      -0.25008467       0.07307535      -0.33827789
Al      14.66299997       0.13269094      14.27780003      -0.87484325      -0.24873657       0.47220049
Al       2.31005003      10.01220003      13.46600015       0.09499545       3.04196120       1.53853390
Al       4.40476998      15.99580004       7.35965990      -2.57556179      -0.36499926      -2.19977942
Al      15.02370004       5.07798003      18.29459987       1.42268767       0.59626722      -1.27623843
Al       2.05842999       2.25006001      11.61970018      -2.06177815      -2.04879219       0.62508867
Al       2.23540997      13.60280000      12.26450017       0.23223674       1.26765910       0.40154048
Al       5.57413994      13.05469999       6.26424985      -0.83029842       0.44101248      -1.55534987
Al      12.39639998       6.65481001       4.74026018      -0.77704616       1.14571377      -0.98563346
Al       1.05813998       0.07783187      10.57040005      -1.92323862      -2.98682490      -1.88362839
Al      15.87719997      11.34890002      17.61789998       2.81274990      -2.13537547      -1.60998774
Al       7.07437998       9.55760007       9.57868007      -1.04698462       0.64610573      -1.60872163
Al      12.70119996       9.97185994      13.22620006       0.30763915       0.08636481      -0.45496274
Al      10.41720004      13.52419994      10.05569991       1.64192303       1.88246679      -0.52451480
Al      11.35980004       3.47347992       4.37006995       0.38518980      -0.21844449      -1.35737244
Al       3.43530002      10.10820003       3.24270999       1.45789001      -2.00590406      -2.16824458
Al       1.84462003       1.88197003       6.90007009       0.84390968       2.80721045      -0.22576139
Al       1.44176008       4.81172002      13.32719997      -0.91155862       2.96394194      -0.47506229
Al      10.88439997       2.26099008      16.13590001      -0.64443935       2.23700198      -3.53026617
Al       0.65306202       1.46005001       4.23505005       1.49274747      -1.10678369      -1.26255761
Al       9.59832003       1.20687994       3.26804994      -1.47663506       3.13182447       0.42880776
Al       4.59099992       3.00017004      11.05990014      -1.20713415       0.33229808       0.26072595
Al      14.83530000      11.04359999       8.70274988      -0.19997092       0.22683236      -0.26489540
Al       1.64599996       3.29258005      18.13289984       1.22583095       0.10290097      -0.95077869
O       14.61139995      12.23700004       6.66227013       0.33612332      -0.22749351       1.89626779
O       11.13129994      10.31199995      16.17160012       1.03759082       0.56042936      -0.09897645
O       10.39529994       7.33558000       8.53804005       0.22540905       0.07382869       0.46019920
O       10.12760002      15.46350008      15.09669984      -2.86316115      -0.89324630       1.61832779
O        2.94593007      13.68149995      19.64130016      -0.15071777      -0.80998185      -1.15099135
O       14.56319995       3.71478997       8.67730991       0.80812659       1.79483157      -1.79139054
O       15.42380003      13.33350003      11.01179987      -1.11187835      -3.78104362      -3.02058554
O        3.63733992       3.33853005       2.56926997       2.39391052       0.94693700       1.57017332
O       13.72430004       9.34685996      11.77100018      -0.58387451       0.15078215       0.80168238
O        3.04375001      16.03540004      17.70109985       1.08873201      -1.96379621       1.08620734
O        2.35050998      13.16720001       4.59301009       0.36079808       0.78977858       2.77752400
O        6.53069000       7.83183005      12.76520012       1.42244417       0.93318360       1.52373422
O        5.16130000      11.56220001      15.97200017       2.61465106       0.59447984       0.66786977
O       11.92299996       0.93600801      15.37120016       0.98917989       3.31844381       4.14798904
O       12.90540005       2.72274998       3.74657993      -0.98243191       0.64143733       0.58906834
O        2.79193004      11.08030002      14.86779990      -2.76057380      -1.91996409      -6.46628172
O        1.79096003       5.81072002       8.80283000       1.25113237      -3.84277553      -1.71266363