360
Lattice="16.2695722 0.0 0.0 0.0 16.2695722 0.0 0.0 0.0 36.2695722" Properties=species:S:1:pos:R:3:forces:R:3 step=0 confid=0 wdir=cand0 selection=->scf energy=-2585.36203 free_energy=-2585.4339521 stress="0.013638543826141445 0.002030281017567074 -3.5518119077025047e-06 0.002030281017567074 0.015848524700929154 0.0005120301902735142 -3.5518119077025047e-06 0.0005120301902735142 0.012273928189128648" pbc="T T T"
Al       5.72136996       2.81542995       7.12004998       0.00096676      -1.58083438      -1.01169157
Al       1.94052996       6.51594008      10.51399986       2.76789061      -0.18580790      -0.88856355
Al       8.74710007      16.01910002       3.77845994      -0.15102107       0.46347881       0.20462488
Al       1.93794001       3.35304999       3.04144011      -0.09135452      -2.14929264       0.29927196
Al      16.00710007       1.29177995      14.08799988      -0.69394018       0.29017123       0.21656598
Al       8.53581007      10.88800006      14.98689988       2.44170620      -0.43750296       0.45192167
Al      12.80439997       8.46526000      17.27849995      -1.49274184      -0.81819059      -0.23617077
Al      11.52310006       7.08102006      15.52179990      -0.42344851       0.87888457       0.13109291
Al      11.08239997       6.38223998      10.99449988      -1.01522012      -0.37380996      -0.47866319
Al      14.05709992      13.74249992       4.91193013       0.10695723      -0.55511415       0.46309312
Al      12.80980000      15.14020000       7.47447986      -1.83810139      -0.74950083      -1.73638386
Al       0.91359895       3.64605994       5.76917997       0.47961626       0.75733576       1.74956070
Al      14.80800006       0.69332001       9.13688011      -0.59000371      -0.02977621       0.06829742
Al      10.88520007       1.16568003       5.87710987      -0.77702776      -0.83295093       0.40364380
Al      15.71580005      11.29370007      11.74440012      -2.57653261       0.51010525       0.11209750
Al       9.34116007       8.89163993      16.64939986      -0.64686562      -0.89020719       0.31061110
Al       3.53811995      11.19729992      16.29980000      -1.26611717      -2.22555617      -0.95554742
Al      14.67390007       3.20577001       7.66779995       0.87390906      -0.47607680      -0.45559163
Al       4.81453004      13.56760007      12.42439983      -0.31922031      -1.59053097       0.89762131
Al      10.30559998       6.85509005       7.85802007      -0.46928834       0.94090543      -0.55981678
Al       9.76218992       9.80580994       3.37175000       1.86485463      -0.52087060       0.74322626
Al      12.66220000      13.72909998      14.79999987       1.39778831      -0.89736297       0.64481443
Al       6.41388007       7.40247997      10.84340011      -0.20648503      -0.32220197      -0.70404506
Al      13.23490001       1.49292002      12.05339983      -0.67566300      -2.20369297      -1.03828355
O       14.59520008       4.74772002       8.91690008      -0.73946490      -0.22125382       0.79471090
O        5.66499004       9.80268993       7.91844010       1.90246821       0.01336474       0.75210811
O        4.53570000       3.68917007      17.24760008      -0.40559231      -0.12309221      -0.99042542
O       15.37750000       7.47163996      15.38040007       0.12014553       0.35742793      -0.55769179
O        5.60871001      13.31710007      10.86789985      -0.28033315       0.02171689      -0.70357340
O       11.56989997       0.65756697      17.79190009       0.78035445       0.34855853      -1.20890722
O       12.32970006       1.05634997       4.83458998      -2.07013361       0.88237536       0.41622110
O       16.24260002      16.03419997      14.96279983      -0.36902993       0.36691799       0.64046537
O       14.08310000      11.46839997       8.50779998      -1.57830170       0.69603414       0.17634166
O        5.30530998       0.27776894      15.43669988      -0.30598241      -0.23939992      -1.01752133
O        4.32266003      13.52960004      14.55429999       1.30551176      -0.64852029      -0.94482324
O       14.36589998       0.30937405      11.20840004       0.41436534       0.25057371      -0.15545277
O       15.92419993      11.15730004      16.57780010      -1.16350600      -0.72917967       2.23029660
O       11.86940002       1.37101993      10.76059995      -0.46402225       0.03533569       0.29443676
O        4.95378001       5.02386005       2.00006996       0.21320695       0.89357201      -0.58158341
O       11.26029994      15.37519998       6.52525003       0.87554229       0.05936270       0.79650300
O       12.12799999       0.17017501      13.06429991      -0.37204197       0.31934591       1.41860203
O       16.09500002      14.79730005      12.17890017       0.35049018      -0.16726141       0.38452887
O        2.12384997      14.00459996       8.69732989       0.05103557       0.37566757       0.65506305
O        9.58897006      14.47420002       3.87455000      -0.43299734       0.22291107      -0.15928076
O        5.89402006      11.62120005       5.90162012      -0.06766218       0.74439241      -0.75575853
O        6.69313003       5.17579003      15.40879987      -0.66310683      -1.38788203      -0.17747679
O        4.54892000      15.43490003       9.43666989       0.30302572      -0.53618129       0.33964922
O       11.52590005       7.76280007       6.61430017       0.34184118      -1.49255550       1.48291149
O        7.95864000      15.69220006      16.48020013      -0.35843289       0.55488442      -0.93819111
O        6.91234007       2.15121994       8.59249015      -0.02688422       0.78195232      -0.25244116
O        7.81323004      11.05679997      10.88770013      -0.38016858      -1.00418494      -0.52351532
O        3.30219993       7.69782997      10.39439986       0.19193961       0.56684238       0.85909216
O       11.44270006      10.68849997       7.36299010       0.28517467       0.80501695       0.50188296
O        5.46246998       7.81829004       2.98314003       0.96907631       0.59778156       0.96003431
O       16.21909992       2.43039002      15.55890005      -0.53983644       0.14175742      -0.14524481
O       13.83949992       0.21977003      16.12569988      -0.18760891      -0.77744206      -1.46290694
O       11.78280001       3.52532003       9.06914995       0.56968510      -0.30999443       1.11276350
O       11.33459998       5.39132005       7.46976010       0.40708781       1.33258198      -0.75011591
O        0.46585903       7.72932998      13.04659999       0.22539934       0.85816930       1.37536966
O       13.94609995       2.37206002       9.18193998      -0.26998914      -0.03233012       1.17696938
Al       2.85351002       3.10870997      17.57540013       1.20372424      -0.20928148       1.78860237
Al      16.02939996      14.45419999      14.11930016      -0.80367245      -0.26655552      -0.22404602
Al       5.96960996       9.83153002       6.23268987      -1.20464060      -0.22766976      -0.86035304
Al       5.94436007       0.99528701       4.30497988      -0.09465725       0.94336740       1.05963203
Al      10.27090007       0.67093503      11.05820013       0.57931609       0.32927850      -0.61761940
Al      13.22880006       4.01263992       9.99874017      -0.12219664      -0.43774783      -0.55926413
Al      12.36579996      12.02559995      12.01589999       0.14457884       1.24056778      -0.27426410
Al       8.37743001      12.78379992       7.75482987      -0.39550379       0.83872284      -1.16330699
Al       4.50783006       0.28470108      13.86839995      -0.42132983      -1.82636219       1.57696847
Al       9.92517996       5.13522999      13.91499982      -2.54932281       0.23048952      -1.11557515
Al       5.01073002       2.01485002      16.46170011       0.69406305      -1.07644928       0.55808645
Al       2.69036005      13.60839993      15.13509989      -0.92336262      -1.14547337      -0.80570641
Al       4.02261008      10.16299994       8.57553993      -0.63204815      -0.26373445      -0.03413737
Al       0.35053005      11.31009996      15.01999985       0.40887546       0.05375949      -1.33144662
Al      15.32769998       6.30330994       8.78445992       0.70313011       0.85976124       1.23935302
Al       9.40102006       2.15358001      13.95209997      -0.25409171      -0.20269484      -0.49284760
Al      12.63179998       8.67325004       3.24952989       2.57997469      -0.03786593       0.31511078
Al      12.81660003      11.96590006       7.22100996      -0.66351518       0.08978831      -0.17348260
Al       9.30437002       8.40421998      10.11589996      -0.27076087      -0.11930105      -0.85103064
Al      10.44899999      16.05430005      13.91689998       1.08889328      -1.02927768      -0.21679788
Al       6.31036996       4.73939000       9.20080995      -1.09229049       1.25531015      -0.00520608
Al       0.59845197      14.66249998       5.45858005       0.92811987       0.62359421       0.91223860
Al       5.94503005      12.55189995      14.77920000      -1.18133705      -0.49711258      -0.40336577
Al       7.53455993       6.74855005      15.63969995      -0.13533550      -0.16551704      -0.57585187
O       15.23179997      10.94000006       6.19200992       0.23091765      -0.62103727      -0.02649635
O        3.24293996       7.17234003       4.01028997      -1.32840223      -0.78821005      -0.32956084
O        0.12847593      10.59000007       4.06411002       0.25216389       0.55358148       0.03288369
O        3.81761005      11.78689995       7.83964990       0.89253656       0.80485642      -0.44156475
O       11.36500000       5.57165996       4.52698992       0.54284263      -0.25112618       0.04141755
O        9.33742002       0.15808200       5.40957985       0.23285637       2.58261144       0.22134782
O        7.28125001       8.88626007       5.48154993      -0.65264378      -0.12488319       0.06839226
O        2.56875997       3.49026007      19.22390006       0.28338963       0.30988611      -0.00989919
O        4.26728004       0.10727896       4.22386987      -0.51370780      -0.05613717      -0.04751012
O        9.90859996      11.46070007       3.67732006      -0.58326414       1.38844592      -0.24353858
O        4.83400000      13.55219994       4.12444010       1.21141261      -1.68070824      -0.30059918
O       10.78469999       3.05765996       5.62747003       0.25074795      -0.24516768      -0.51721244
O       10.44189994      12.49360005      11.56709995      -0.03194777       0.39933717       0.42268437
O       16.13190006       6.15139005       4.19312996      -1.10999422      -0.92465203       1.40312881
O       15.60620008      10.71810001      13.46079996       0.61279984      -0.74568218       0.66136725
O       15.33409994       4.89581998      16.55820002       0.60224705      -0.70277410      -0.52093487
O       15.89719993       6.92055994       7.27246995      -0.32172376      -0.25472994      -1.14774162
O        0.56336696       7.07721005       9.72905994      -1.26289838       0.26819421       0.05111395
O       14.46610005       7.64317999       9.81489007      -0.03614692      -0.59787848      -0.25859239
O       12.96569992       6.81603998      16.59189990       0.75733790      -0.09177756      -0.97072480
O        4.06010998       1.50300000      12.79259983       0.60322373       0.97864844      -0.99502622
O       11.66569993      15.11300004      15.38159987       1.00241513       0.09573046      -0.34846822
O        5.27352998       8.09547003      12.09779995      -0.21940057       1.27933786       0.24709329
O        6.88603005      13.78419997      15.50670015       0.32811554       0.14844691       0.20459520
O        0.07164209      15.01669995       7.17929016       0.72017161       0.44483054      -0.93547193
O        2.40860994       0.26093595       7.56839992      -0.97961109      -0.06478408      -0.13003099
O       14.08129993      14.58879995      13.91719993      -0.74046775       0.76003094      -0.04391923
O        3.72242004       6.38826005       6.91648011       0.53620297       0.95192930       0.16334956
O        5.08912999      10.12890006      10.14309996       0.03857299       0.10668459       0.65827988
O        9.30669998       8.73881007      12.06359992       0.11057563       0.33378820      -1.27010097
O        6.66180997       6.12784993      11.96029983       1.48108673      -1.86873368       1.37367429
O        7.71330005       4.22510003      10.18080000       1.12961654      -0.41265501       1.15914070
O       11.95240005       7.87494997      11.10819991       0.90901106       0.85270909       1.58005038
O        9.26563005       1.39732002       9.74160994      -0.43676660       0.12707732      -0.03285901
O       15.83440003       4.40784003      13.75800009       0.46918676      -0.27706702      -0.43083527
O        1.27448003       5.95435007      14.76220008       0.89431378      -1.05964588       0.13755070
Al       0.16763598      14.22899999       8.72363984       0.78011246       1.66533181       0.38717528
Al       0.64653507       4.08097993      15.16280005       0.85147525       0.22837538      -0.02665996
Al       8.70038004      15.98850005       9.09885001       1.51903566       0.39925300       0.53920983
Al       4.15585999       9.17722998      11.23309998      -0.78433167      -2.21991897      -1.03724059
Al       3.24995003       3.81089999      10.02689987      -0.28764889       1.21784644      -1.07099032
Al      15.70469997      11.21880000       7.88728998       0.32412249      -1.43581986      -1.07783105
Al       7.47286002       4.48876993      11.97210013      -0.86420999       1.77336445      -1.54981293
Al      14.29169999       4.44048997      12.86979997       0.08205039       0.51701839      -0.25941354
Al       0.78113193       7.88691998      14.95780007      -0.18911204      -0.22460071       0.99097409
Al      13.48260001      16.12200002       4.56706018       1.75858906       0.35836077      -0.31835699
Al       0.48552894      11.77190005       5.27527000      -0.74645334      -0.15749759       1.54967302
Al       8.65676002      14.17010007      15.63169997       1.20961712       1.05271044       1.07511904
Al       7.11496994      12.50689994      11.47200004       0.07401337       0.27533971      -0.24692718
Al       8.77960993       8.40777992       6.27912000       0.63138481      -0.44978177       0.86395259
Al       3.81399999      13.96740008      17.87079983       0.39818136      -0.01460374       0.44900374
Al       4.12099006      16.13470005      11.07329988      -1.41133266       0.45470101      -0.12553499
Al       5.72924997       0.81649808       9.07361002       0.19329046       1.25807013      -1.37370903
Al      12.73200005      12.81800003      17.92219998      -1.25812245      -2.74598763      -0.21800985
Al       6.15990001      15.27600000      16.36309983       1.35385201       0.21790163       0.25736203
Al      15.39659999       5.90376993       5.80273984       0.86829822      -0.93774570       0.77565814
Al      15.49599992       0.16992787      16.87760003       0.01627648      -1.02186018      -0.64051311
Al       4.94951006       4.64099992      15.70370015      -0.50623481       1.19287533       1.04608342
Al       8.18398008       4.87460007       6.75846991       1.35489250      -0.02240834      -0.97141206
Al       5.07226007       7.09007994      13.54330018       0.97737495      -0.45850530      -0.05356224
O       14.69839993       1.72227999      17.77000016       0.84029877       0.34884683       0.34180253
O        8.14172995      10.86300008       8.00373018      -0.32117847       0.56703185       0.63626349
O        4.28451993      10.60760001      14.68440004       1.18512758       0.55151414       0.48835671
O        3.63001993       2.66071006       2.99693009      -0.21902146      -1.11528644       0.06466403
O        1.56656001       2.33151999       6.67376015      -0.23021746      -0.28072528      -0.02458256
O       13.68289992       5.82915002       5.56652990       0.60860259       0.14710099       0.07902195
O        4.85066997       4.88940001       4.54261014      -0.63219396       0.18768414      -0.06440957
O        9.27971006       3.84741005       7.86129014      -0.49944507       0.06387225       0.44481228
O        8.21219998       7.53510008      16.97469984       0.76934613       1.33502345       0.63696494
O        0.54337898       2.97329003       4.27014005       0.34320359       0.31669611      -1.81496536
O        4.50624003       9.28040005      16.78450003       0.06569157       0.81811313      -0.79466551
O        6.20720005       7.80303000      14.91770007      -0.93736996       0.96864460      -0.67539714
O       13.66540005      14.75880006       3.58453016       0.13336936      -0.64309148      -0.61174103
O        3.64387005       8.00747003      14.32889984       0.01044991       0.06222276      -0.50937086
O        9.55075007       0.83178904      12.64330012       0.16037266       1.18404626       0.58038501
O        2.62906997       2.43347994       9.33421016      -0.61755697      -0.46770312       0.30391920
O        9.19565006       2.22301008      17.47129992      -0.87282185      -0.78267198      -0.71236673
O        6.39496002       2.51770003       3.07825010       0.22155917      -0.63876359       0.00688639
O       13.37169994       3.13605994       6.49782987      -0.33050095       0.01937861       0.93879565
O       10.06160000       9.98143005      10.04310003       0.77803516       0.35349781       1.41303874
O       16.21000002       9.47918006       8.25734988      -0.36671168      -0.20892580       0.22679806
O        2.25447999      14.24439995       5.11756011      -1.58080987      -0.63123933      -0.23147141
O        3.78697998      15.94764113       1.44899988       1.83735304      -1.29196825       0.57757823
O        3.25901999       3.51752999      11.81569994      -0.20620839       0.79601407       0.84146160
O        8.01206992      13.73560000      10.50739989      -0.32002695      -0.79080353       0.41341282
O        9.89416007      12.48779995       8.80712985      -0.32791464       0.81760484       0.54307664
O        4.98215007      15.09840005       2.01718013      -0.55068900       0.64342881      -1.51031484
O       13.10179994       3.17229992      16.26780008      -0.39204275      -1.02966886       0.02894799
O        6.66113006       1.69241003      17.06269998      -0.06211148      -0.27568349       0.25011492
O        6.21411006       2.01121002       5.67439996       0.24292422      -0.35333463      -0.74450129
O        9.87478008      14.02869992      17.15429987      -0.09544965      -0.14733381       0.04975552
O        7.53078995       8.51379001      10.05810004      -0.44005227       0.46573066      -0.12783743
O        8.88366003       6.60239007       6.69926999      -0.35265892       0.05347166       0.66209454
O        4.33974992      14.37169992       6.83595006       0.56381348      -0.52470318      -1.15061493
O        0.24979504      12.45829996       8.77290008       0.27183771      -0.50306872      -0.08500498
O        2.37221003      13.99540001      18.95289998       0.48634281       0.29439482      -0.39925746
Al       9.65467994      10.54229996      11.69469993      -0.40971187       1.07729754       0.94782276
Al      12.01379996       4.10093001      15.01379993       2.70269926      -1.50751068       2.28856360
Al      14.34630003       6.11208000      15.67319998       0.80676738      -0.44686666       0.35627535
Al       5.84047006      12.07449994       4.14723009       0.56660528      -1.89717888       0.07161300
Al       8.47305003       2.88828997       9.10698999      -0.46302981      -0.42011089      -0.84193736
Al      10.15549999      12.83100007      13.50970005      -2.18401433      -1.16251742      -0.28645572
Al      13.11869996       5.35362004       3.83163984      -0.82151887      -1.06885629      -0.08352628
Al       9.89966992      10.67900000       8.49407992       0.71471231      -0.36954948      -2.04112078
Al       3.86940000      14.64410007       4.99838011      -0.63732248       2.41227742       1.02871763
Al      13.38930004       2.51176993       4.87696010       0.61595908       0.16876371      -1.89759201
Al      13.70360003       6.96781003      11.31240014      -0.48468735       0.81324534      -1.19285867
Al       4.31220993       9.12561997       3.56309013      -0.17570578      -0.67065479       1.46942976
Al      12.16649998       1.64414993       8.92408000       1.30883765       0.22688445       1.75419172
Al       4.53776005       6.19997002       3.19696984       1.10903365       0.59787837       0.45925269
Al      14.96519992      10.66319997      17.94540018       0.35561510      -1.09466097      -0.05771541
Al       3.23651999       0.75059102       2.71546007      -0.11371236       1.71147561       1.76235746
Al       3.64984994       7.90097998      16.11860012      -0.40834713      -0.18562838       1.22167309
Al       9.60321001      14.84459993       6.12013015       0.70904105      -1.12122138       0.59328230
Al      15.20709999       7.70178006       3.62015994       0.91409112       0.16254152      -2.32605007
Al       5.76378994       9.54640008      15.38089987      -0.76054626      -0.30930252       0.84241100
Al       9.53062998       8.01522996      13.59210016      -0.34038758      -1.15175215      -0.06336056
Al      15.48599999       8.93338000      12.77790013      -0.30064704       0.57502063       1.84294697
Al       3.67277002       4.90585001       5.93470994       1.05231633      -0.10970745      -0.12563906
Al       3.19769005       8.10217000       6.22328009       0.65269520      -0.90380520       0.26014860
O        2.28126995      15.64940002      11.41110016       0.15666633      -0.93258558      -0.07679908
O        5.26624999       2.98242995      15.00649995      -0.18564080       1.10535947      -0.71957494
O        0.76235701       8.02990007       3.07853989      -1.07598516      -1.54588098      -0.82496874
O        7.81216000       2.09021995      14.78940009       0.04484359       0.97682493      -0.85490379
O       13.96999995       9.30766005      18.02919993       0.99784799       0.31305419       0.90039551
O        0.85676202      12.22859996      11.46340016       0.08760414       1.65641455       0.91828419
O       12.80039993       9.46850999       4.93834998      -0.88088539       0.36511647       1.13884137
O        2.71506003       0.54591004      14.50639986       0.04884416      -0.21802032       0.95619059
O        8.65245005       1.11781007       2.72552016       0.42868345      -1.65434273       0.39715143
O        9.93850002       9.34909995       5.32527994      -2.54423603      -0.49054044      -1.20621608
O        9.05987007       9.15222007      14.84779990      -0.47131170       0.77018715       0.91571185
O       12.63250006       5.55654000      10.84620013       0.70112265      -1.21389827      -0.02551199
O       10.96509994       5.45366001      15.32630002      -0.20386375       0.56632264       0.65090174
O        2.97587005      10.04749997      12.20159984      -0.12592562       0.33469245       0.84630136
O        8.29481003       9.25142004       2.82809994      -0.87475555      -0.80214641      -0.58477241
O       11.62900001      10.47289999      12.36379991      -0.49736682      -1.96073361       0.12241369
O       13.94639996      15.21200006       6.09111993      -0.39385134      -0.35126118       0.10922671
O       15.54370003       1.45610003       7.68635002       0.14189258       0.52782829      -0.89924208
O        4.00070001       3.47429003       6.94099000       0.36353922       0.88592727       0.29006529
O        1.77903997       4.18882003      16.72710017      -0.93392755       1.18638868      -1.24603557
O        1.84613000       7.65626007      16.54500008       0.79021522      -0.05667092      -0.12817314
O        5.73531998      10.30919994       3.58357990       0.14546485       1.47615588       0.06778216
O        3.95546002       6.16349998      16.33349987       0.15308556      -0.64855851       0.23521855
O        9.44165999       3.87633003       2.84350000       0.23722772      -0.37660681       0.04719399
O       12.63950004      13.52299996       8.29548987      -0.16813334      -0.66388351      -0.73412037
O       15.76309993      14.49620006      17.34329989       0.82488194       0.69887120       0.80883225
O        3.29786002       8.53723008       7.99194982       0.62820450       0.72481731       0.56564212
O        4.70513002       1.31397002       7.68836987       0.80957354      -0.63751709       1.61952581
O        5.01346005       3.96261001      10.12930011       0.90261267      -0.33800409       0.10062662
O        8.89533003      13.11300007       5.99770003      -0.15935822      -0.05020167       0.14351483
O        9.93227008      15.33359998      10.39999988       0.55895375       0.01641098      -0.56788354
O       13.93410000      11.50730003      11.26770007       1.48933223       0.48106478      -0.09589497
O       13.37470005       5.05190001      14.33769992       0.20001902       0.37103155      -0.39682693
O       11.09159993       8.87561001       2.73258983      -0.95724917       0.28252063      -0.46231583
O       13.07909998      16.26906801       8.76136999       1.11966189       0.85533563      -0.14649223
O       13.33379997      12.76889992      16.15480005      -0.69091145       1.32433362      -0.27380686
Al       2.05010000      12.29489993       8.24507988       0.81310130      -1.62122406      -0.37903960
Al      13.38340004      16.22020007      14.36190007      -0.18537314       0.06514194       0.22964185
Al       3.04092996       9.60428998      13.96790008      -1.65815173       1.10745850      -1.77640447
Al       3.32701005      15.18100002       8.08367992      -0.15736856      -0.18296429      -0.14753845
Al      15.04860003       3.19827999      16.81800006      -1.63914759      -0.42125286      -0.67572221
Al       2.43536005       1.93462004      13.33629994       0.25897274      -1.68092004      -1.61245341
Al       1.69635004      13.94859993      12.04789991      -0.48965950       0.14819444       0.78913083
Al       5.09307000      12.71839999       7.06193016       0.32065439       0.30994653       1.16332771
Al      12.08950000       6.19433001       6.07541013      -1.12168703      -0.02942107      -0.49371976
Al       0.54141996       0.05815868      11.28919994       0.40859913      -0.18655202      -0.14342414
Al      15.07060007      12.91539994      16.69309998      -0.24478186       0.17399110       0.49628904
Al       6.97468002      10.16900000       9.39854005      -0.74551385      -0.12834451      -0.75663305
Al      12.15980001       8.80390008      12.66250015       0.23984382       0.80134112      -1.99512140
Al       9.79533006      13.55959999      10.27689986      -0.62292602      -0.28797364      -0.74399107
Al      10.09060002       4.23367003       4.44606017      -1.46463552       0.27174086      -0.33339807
Al       1.36836002       9.39278993       3.90336001       1.01580738      -0.06441319      -0.31483411
Al       3.01396998       2.01411008       7.68871987       0.73380373      -0.11640452      -0.69176795
Al       2.86130005       4.80747995      13.12620010       1.03169475      -2.19227178      -0.25031656
Al      10.29089993       1.51830007      18.71189992      -0.25724574       0.60079304       0.99726295
Al       0.71754703       0.68725292       6.88832005       0.36251290      -0.35787729       0.87492099
Al       8.18414001       2.71762997       2.92291006       0.13211956       0.64089420       0.27497487
Al       4.95927001       2.79279995      11.64890016      -0.67615891      -0.66499053      -0.56570923
Al      15.94919992       8.67379003       9.86104999       0.12723495      -0.91179630      -2.86664554
Al       2.20110001       5.90558008      16.50840009      -0.91520921      -0.52030400      -0.70846824
O       15.85550004      13.28500004       5.00368018       0.02068302       0.68562201      -0.49920919
O       11.41540005      11.56419993      17.90550002       1.59231795       0.97457438       0.11463673
O        9.54216006       8.63665001       8.04543982      -0.44005220       0.64067429      -0.78910125
O        9.52743008      14.48759996      13.89769996      -0.39050024       0.06003148       0.13188655
O        4.24633004      12.41340001      17.12609992       0.62729982       1.27357103       1.07636510
O       15.81629997       4.29551002       6.71630000       0.23533327       0.54366132      -1.21127563
O       14.95959994      14.17019997       9.77992004      -0.93563071      -0.79796385       0.40006288
O        1.90030002       4.89973005       2.43437996      -0.45066412       2.70328807       0.87462505
O       13.88380002       8.21344997      12.69600017      -0.08315839       0.71293155       0.12240043
O        2.56025000      14.74810005      16.48179998      -0.25638856       0.56357842       0.56181869
O        1.51667994      11.59539992       6.71598990      -1.45501321       0.26675049      -1.17486174
O        8.81461994       6.60603007      14.43660016       0.46047675      -0.62685815      -0.16937385
O        6.85539006      10.94640002      15.34480004      -2.54803122       0.35217164      -0.37211829
O       10.74180006       3.30860005      14.20040001      -0.12716617       0.35068662      -1.16856360
O       13.44449993       3.65559000       3.54069984      -0.38889278       1.34788558       0.79619050
O        1.98748996      11.99219998      15.64029985       1.45706807      -0.06067375       0.04591996
O        2.82297008       5.39998994       9.33948992      -0.19116037       0.97257542       1.07804110