360
Lattice="16.22612893 0.0 0.0 0.0 16.22612893 0.0 0.0 0.0 36.22612893" Properties=species:S:1:pos:R:3:forces:R:3 step=0 confid=0 wdir=cand0 selection=->scf energy=-2593.42563461 free_energy=-2593.47342199 stress="0.01091000776885135 -0.0014496607738791441 0.001488194590437504 -0.0014496607738791441 0.013522522678668212 0.00029863251890487204 0.001488194590437504 0.00029863251890487204 0.015362979749204938" pbc="T T T"
Al       5.58275007       3.43440006       7.24510986       0.60053313       1.66059017       0.09203603
Al       1.62020997       6.83084006      10.69959983       1.26771520       0.62201996      -0.61249551
Al       8.52731997      16.11601599       3.06715983      -1.53642021       0.23875324       1.63001142
Al       2.46096002       2.78907993       3.31166990      -0.98049900      -0.36145691      -0.22551837
Al      15.70540000       1.25850002      12.79150010       1.69569149       0.70969345      -0.28986890
Al       9.87376999      10.25930006      14.55329992       2.15719644       0.07665034       0.70971972
Al      13.10830000       7.67881999      17.46220011       0.76466734       0.44385461      -2.14734485
Al      11.50119993       7.22504007      15.23930000      -0.37446835       0.72828594      -0.91844046
Al      11.02460007       5.89045005      10.93609994       0.80958936       2.46206928      -0.16704304
Al      13.76620008      13.50819992       4.55037999       1.20323148      -1.19331851      -0.70266917
Al      12.29889996      14.66599994       7.14089997       0.34699683      -2.21215893       0.24551872
Al       0.78976805       3.21041993       6.16948002       1.76527691      -1.27180232      -0.45707929
Al      14.16940007      15.58900008       9.18946003       0.90525303       0.74496664       0.22103533
Al      10.89549996       0.79607498       5.48450007       0.18558652       0.81083844       0.18131278
Al      15.90099998      11.57000002      11.06010016       0.37854762      -0.81517797       0.26213326
Al      10.15660002       8.73159996      17.42160004      -2.83667761       2.02067062       0.52294511
Al       5.27240994      10.52789993      17.06110007      -1.04593382       2.14142521       1.48321709
Al      14.48920004       3.12036994       7.40831002      -0.13652836       0.04959746      -1.05607052
Al       4.96224003      13.73360000      12.81890010      -1.84048729       1.04109112       0.99254230
Al      10.54010003       6.80591997       8.00536010       1.65818005      -0.54974444      -0.13900938
Al       9.24481002       9.91028008       4.08587987       0.37563320      -1.48867730      -0.00836161
Al      13.43930005      13.52690005      14.98719983      -1.07234233       0.26277347       0.01656511
Al       6.56070000       7.18932003      11.32439984       0.97826228      -0.32914758       0.18903510
Al      12.90449998       1.22104005      11.61030007       2.04569096      -0.30113743      -0.72850343
O       14.20920001       4.52732006       8.70915988       1.55454261       1.45848222      -0.29967376
O        5.92390005      10.93129999       8.83453996       0.33332827      -0.77781448      -0.03247348
O        5.17828006       6.62157995      16.23829998      -2.83867716       1.40476550       0.12640175
O       15.96939993       6.80625001      14.41550007       1.39666594       0.78605913       0.81923123
O        5.96009000      13.34210002      11.56270003       0.41941054      -0.43189784      -1.67405786
O       12.78150008       1.22417007      17.68860001      -1.46038174       0.44144105       0.55791508
O       12.37299999       1.40670997       4.55406999      -0.63373471      -0.66739191       0.16465842
O        0.24178701       0.35175895      14.14699998      -0.79475084      -0.10948406       0.58690675
O       13.70299996      11.60939998       8.74691983       0.10264851       0.14544767      -0.02007216
O        5.85077003       0.40873505      15.82619987      -1.16182350       1.34414182       0.48322864
O        4.78519998      13.07990005      14.47539998       0.64309848      -0.71911658       0.65779987
O       13.38319999      14.78769996      10.66919995       1.23091632      -0.24469350       0.62755135
O       15.44679996      11.20960001      16.20029986      -0.04447344      -0.11001545       0.54176391
O       11.92010001       0.82839207      10.25259983      -1.36545412       0.18455807      -0.17396735
O        5.77029995       4.75424004       3.27457000      -1.78285006       3.14476955       0.29390792
O       11.02829995      15.35980000       6.30331999      -2.89578352       0.28907118      -1.88999252
O       12.03849996       0.72563800      13.06780005       0.14944051      -1.08876187       0.04439124
O        0.17189393      14.81520001      11.75860007      -0.07922680      -0.28143027      -0.14575371
O        1.79160997      14.00609999       9.44051000      -0.59268726       0.56641659      -0.08860867
O        8.87581000      14.48990003       2.99441994       0.83979301      -2.37138902       0.61077925
O        5.96643004      11.99560002       6.14904993       0.22259104      -0.02471609       1.17695653
O        6.50817002       4.85697999      15.38070000       1.67127130      -1.86404243      -1.20031752
O        4.34632002      15.02860005      10.19420005       2.05253839      -0.38754594       0.22339797
O       11.60179999       8.00777993       7.22703013      -1.22154167      -1.34127425       0.41483701
O        8.06014002      15.46679997      15.70519989       3.11528000       2.36684877      -0.56833379
O        6.56039008       2.38816993       8.32019015       0.78348409      -1.81053021       1.11663566
O        7.79433997      11.06869993      11.31610007       0.46531648       0.50888662      -0.15205782
O        3.14785993       8.07082996      10.76640008      -1.38949576      -1.61485899      -0.49189204
O       11.00850002      10.98160002       7.37126011      -0.33849200       0.30268221      -0.42261328
O        5.78303000       7.65280999       4.41690989       0.72875115      -0.30280317      -0.56635925
O       15.99842393       2.43409004      16.03789994       0.20586856      -0.44092904       1.02809574
O       14.40629993       0.26877901      16.17209999      -1.03743376       1.26053327       0.94634103
O       11.51979995       3.29926999       8.85030992       0.33739736      -0.45317952       1.25817125
O       11.26149993       5.39566995       7.09394004      -0.27532589       2.49336083       0.42670906
O        0.51118699       8.04295996      11.52259988      -0.53606607      -0.77212601      -0.05757295
O       13.79250004       2.07983000       8.81691016      -0.67601960       0.68221380       0.34599170
Al       2.20027996       5.56830996      16.97830018      -0.82565872      -1.20519784       1.81386070
Al       1.69335005      15.95200000      14.95299983      -0.32495676       0.76422950       0.02396846
Al       6.78469993      10.87800008       7.22400017      -0.81262592      -0.49700687       0.37548698
Al       5.47984997       1.39036993       4.35694007       2.06762676       1.32471203      -0.86538556
Al      10.18989993       0.62679605      10.69009989      -0.53537732      -0.19653472      -2.30790853
Al      13.00030002       3.71122999       9.68171987       0.09765927      -0.25333330      -0.34887828
Al      12.93009995      11.93040003      12.21129989       1.51982134      -1.81855799      -0.40791585
Al       7.38671008      13.53329996       7.18520996       0.67165667      -0.20959379       0.32591394
Al       4.58306995       0.72627001      14.43570013       0.98904536      -0.23792683      -1.32888968
Al       9.89391002       4.86656996      13.77860017      -0.11639167       0.03118263      -0.17256562
Al       6.10786006       1.89904999      17.15999993      -0.67687221      -0.35032931      -0.76214350
Al       2.89101994      13.10739994      14.81759996       0.90769638      -1.16921980      -1.46417489
Al       4.13565003      10.42019997       9.33986005       0.23787229       3.05079391      -0.32027960
Al       0.31068607      10.71080004      14.84269996      -0.65822390      -0.42370530       0.16890347
Al      14.92529997       6.17381992       8.64260995       0.96422529       0.44488438       0.15965221
Al      10.65290002       1.79709992      13.24090008      -2.01669441      -0.32994329      -0.24991262
Al      11.00150007       7.75606999       3.32975000      -0.70905245      -0.67906279      -0.72481112
Al      12.65200000      11.77459998       7.24869987      -0.56998702       0.24167045      -0.03918461
Al       8.90978995       8.27276008      10.39819988       2.22946082      -0.48998940      -0.41066046
Al      11.31689999      15.70700006      14.19850013      -0.24996079       0.28252575       0.46762331
Al       6.34448002       4.86208003       9.94576017       1.09203601      -0.14464198      -0.53509779
Al       0.35476792      15.19639997       5.40725003       1.54458695       1.07143394      -1.69859402
Al       6.39513004      12.42090001      14.95669996      -0.01009530       1.33854964      -2.00710530
Al       7.55910994       6.25347999      15.81439994      -0.92077341      -0.03781895      -0.37782656
O       15.41490004      11.02039994       6.50924017      -0.65063889       0.81837727       0.06114092
O        3.24752000       6.44923996       4.83741012       2.18512233       0.15179295      -0.37519744
O        1.54419006      11.11890000       4.95661002      -0.74909055       0.83503181       0.16642790
O        3.52798004      11.79070004       7.91532984      -0.37365911      -0.82819234       1.65706129
O       10.26590003       6.46254003       4.51902990       0.48993672      -1.08047357       0.16894154
O        9.11226007       0.41821695       4.97694013       1.90816327      -0.92128501       0.30298377
O        6.88914995       9.32484995       6.41718994      -1.20926572       0.22878571      -0.34277686
O       14.07700006       6.40254003      17.91350015       1.03868038      -1.55678315       0.60107551
O        4.95217999      16.05790000       4.91890007      -0.48698736      -1.58462193       0.57208131
O        8.92533004      11.52020008       3.96805982      -0.73068017       1.74744566       0.25425295
O        4.16905995      13.27289996       5.22834004      -0.97178653       1.24085171       0.10897463
O       10.68330000       3.62466002       5.18762006       0.29290023      -0.28464054       0.04482560
O        9.68443995      12.85850004      11.78019989       0.09580212       1.05649588       0.88147886
O        0.29103006       6.30196999       4.72692006      -1.34938065      -0.58143246       0.68683907
O       15.55450008      10.47409993      13.44340016       0.27843750       0.70943493       0.69592185
O       15.04769999       4.71772005      15.70670002       0.04265934       0.90017000       0.13423320
O       15.08539994       6.79310003       6.99354983       0.08729221       0.92331888       0.96261973
O        0.41215698       6.89168999       9.23567986      -0.38706649      -0.18751937       1.24027688
O       14.18659993       7.43695997       9.85266988       0.14863907      -0.86047372      -1.09507621
O       13.22780008       7.38488999      15.43409985       0.96951643      -0.79620414       0.47318177
O        3.56191001       1.46284994      12.90790009       0.31117914      -1.09897051       0.64329455
O       12.25250005      14.95499995      15.51280002       0.26896479       0.20807819       0.41337067
O        5.26057996       7.45263992      12.57849988      -0.43888542       0.89449427       0.47205310
O        7.20069000      13.44119997      16.12630002      -0.03857230      -1.71353877      -0.80896633
O        0.63045293      15.50660006       7.11839014      -0.34269575      -0.27914328       0.32596959
O        2.05949995       0.45648401       9.19710990      -0.90447985      -0.66919881       0.33465236
O       14.49860000      14.67519999      13.87440017      -0.97321929      -1.11803424       0.48202307
O        3.59335998       6.74327997       7.56645012       0.25103810       0.50096173      -0.11516218
O        5.09256002       9.81529995      10.91030005      -1.11018684       0.48807659       0.87477860
O        8.38836995       7.80244005      12.13859984      -0.35284040      -0.73474205       0.29071432
O        7.19005994       5.50669999      11.50199989      -0.16979277       0.17499838      -0.30604765
O        7.81247997       3.47675999      10.23879984       0.32989876       0.56599805       1.68042240
O       11.85499997       7.34023001      11.83529984      -0.48190408       0.35650910      -0.05255607
O        8.99674999       0.96690902       9.28582986       1.60847879      -0.10452420       1.17726829
O       15.17860006       2.97171994      13.27199985       0.97419667      -0.87437488       1.49072868
O        1.95650006       5.64104001      15.28180013      -0.69966447      -0.83682931      -1.26340134
Al       0.32104694      14.16479997       8.25525989       0.15201473       0.12420908       0.30501958
Al       0.06657013       3.56081994      14.71400012      -1.93508262      -0.40943580      -0.70113961
Al       8.49138007      15.37810000       9.39828990       0.64050684      -0.01721421      -1.20052533
Al       4.15476992       8.76328001      11.94709983      -0.33073818       0.14050869      -0.09917887
Al       3.56965003       4.51220996      10.57650018      -2.71857451      -2.77264452       0.22530665
Al      15.31019997      10.96999996       8.33399014      -0.43401571      -0.92921079      -1.99483458
Al       8.42300008       4.22245008      11.68810003      -0.75372441       0.01393375      -1.27494042
Al      14.09059999       4.05479993      12.42969997       0.91085359       2.12890380      -1.58661381
Al       1.42050007       7.43105998      15.39509988      -1.55021306      -0.89652335      -2.53800026
Al      13.82460003       0.46556301       3.95608999      -0.36982956      -1.71025459      -0.29526110
Al       0.32136205      12.09019998       5.72094983       1.91851480       0.76263512       0.21741919
Al       8.66927004      13.86180005      14.94549993      -0.52541991       0.09692769      -0.79383945
Al       7.74223008      12.89629995      11.71149994      -0.32074895       0.25606981      -2.06965310
Al       8.36474000       8.54269001       6.88356005       0.56751985      -0.63498533       0.85107210
Al       4.21708994      13.53860006      17.84090009       0.21085499      -1.34698962       0.52421178
Al       4.06053992      16.20975238      11.67999987       1.76499700      -0.49280162      -0.16433148
Al       5.73557993       1.08568006       9.22642988       0.12163383      -0.07121270      -1.29963687
Al      12.73549998      13.04249996      18.55149988      -2.83238582      -0.27526785      -0.55232331
Al       6.48397004      15.06010000      16.31760007       0.79193248      -0.34387554      -0.05614244
Al      14.94380003       5.70282002       5.59691011       1.09228728      -0.10970321      -0.07304850
Al       0.43910193       3.06726004      17.60190002       0.31030626      -0.68880307       0.56370123
Al       4.78936003       4.83208992      15.89980014       1.28358852      -0.78353683       0.79972537
Al       8.10408006       5.17704006       7.24298013       0.51433282      -1.08555563      -1.26282803
Al       4.94063996       6.89216996      14.26159989       1.29780094       0.15043005      -0.66252349
O       14.86049995       3.34321992      18.17769985       0.90811227      -0.83811610      -1.11963631
O        8.19319006      11.92210004       7.47295012      -0.98362342       0.43919989      -0.53324819
O        3.82078005       9.77098996      16.36260016      -0.17594832      -1.39232172       0.04333974
O        3.96930008       1.76512001       3.35865012      -0.85318218       0.32560696       0.58590073
O        1.78109998       2.28121995       7.44949007       0.49810371      -0.27205422       0.62548149
O       13.41019995       6.26255007       5.03133004      -1.71646327       0.34855601      -0.46894918
O        5.24321995       5.00494006       5.92806982      -0.35940912       0.53042966      -0.34850815
O        9.15896001       3.76754001       7.85168995      -0.19854996       0.43247264      -0.72684688
O        8.67539995       8.44943001      16.34880018      -0.76355947      -0.06054915      -0.43633206
O        1.13826992       2.42207005       4.50256006      -1.32681404       0.26028804       1.06583543
O        6.28333996       9.10021006      17.35189988       0.67205519      -0.38319773       0.49923710
O        6.68796997       7.74403994      14.76739997       1.05509774       0.16321799      -0.06375334
O       13.16249998      15.02229993       3.95645007       0.98060975       0.20988482       0.33093761
O        3.45510995       7.89570995      14.66620010      -0.63631817       0.40390761       0.13444903
O        9.54696001       1.57731003      11.95319995       0.65392006       0.19471972       0.42955425
O        2.54104002       2.87007006      10.29279996       0.83347162       1.07491023       1.38887410
O        9.83656007       1.40556002      17.11600004       0.37235122      -0.46034785       0.25276276
O        6.86925996       2.45585999       3.70861988       0.80622893       1.03279487      -0.68838153
O       13.07049993       3.49930003       6.29764009       0.28454439      -0.78510049       1.36166293
O       10.15520003       9.39770997      10.97790018       1.23235491       0.97740480       1.09545149
O       15.40360001       9.22196006       8.26885990       1.39315095      -1.21996594      -0.01064969
O        2.23627000      15.70630006       4.74730994      -1.10485177      -0.77801139      -0.18560413
O        4.12134004      15.30609996       2.23483010      -0.18484208      -0.00408687       1.14545734
O        3.43653006       3.88143007      12.36320003      -0.61351388       0.29575085      -0.60937127
O        7.76179993      13.87469998      10.10149992       0.88250253      -1.03896392       1.53644622
O        9.79618995      11.96560002       9.56834983       0.54634204      -0.49240002       2.24825356
O        7.63357992       6.39751999      17.52810015      -0.20458344      -0.92270982       0.19834106
O       12.71680002       2.91820000      15.97320007       0.05539980      -0.22145415       1.17267631
O        7.36477008       2.21275996      18.26209985       0.85946753       0.71544766       0.31501803
O        5.74517006       2.62333992       5.77150991      -0.44980695      -1.65700886      -1.53125944
O       11.12899996      12.34439997      18.19319992       1.08604926       0.62254214       0.10342966
O        7.23045002       8.44216995      10.18670015      -1.67464624       1.25837202      -0.48446909
O        8.95668005       6.84509001       7.32181000      -3.07210718       0.17845269      -0.61115776
O        3.54367995      14.53340001       7.21704983      -0.02356362       0.99008431       2.72209968
O        0.34677996      11.56070001       9.42533995      -0.21955022       0.47808143       0.76284971
O        3.19632997      13.66670000      16.42280002      -2.20782322      -0.94987062      -0.34303999
Al       9.68599993      11.09300002      11.26469991      -1.34668847       0.25281128      -1.41904169
Al      12.26579996       4.06010993      14.78260009       0.18678590       1.49111174      -0.12632723
Al      14.38400004       6.15710003      14.81260003      -0.66752615       0.60971926      -0.87001294
Al       5.36087999      12.21609997       4.47383998      -0.19800559      -0.37273524      -1.71431192
Al       8.33014995       2.56035999       8.85115001      -0.34205017       0.37864353      -1.12006458
Al      10.65950000      12.84410000      13.30980001      -1.45762458       0.36953642       1.00197851
Al      13.39669997       6.00245999       2.99129000       0.50702719      -1.04734983       1.43715854
Al       9.47960000      11.03169998       8.18448997       1.26473553       0.20531047      -0.60084480
Al       3.64763995      15.10149999       5.60480016       0.46564572      -0.68305651      -2.07925141
Al      12.44050003       3.21022992       4.68266985      -0.23969293       1.21740639      -0.45584008
Al      13.58420003       6.78455000      11.31580012      -0.87088070      -1.03589030       0.89564294
Al       5.37797000       9.26050994       4.66421988       0.08607657      -0.41502793       0.01458376
Al      12.17980001       1.34476997       8.48431988       0.08535210       1.97200889      -1.11892694
Al       4.98198998       6.15886998       4.22416008      -0.36684598      -1.26245491       0.40227114
Al      13.75520006      10.83490007      17.05470000       0.65208464      -0.79605174      -1.04307504
Al       3.02190006       0.19807106       3.05265018      -0.30787541      -0.69130121      -0.03840769
Al       3.90035006       7.89623000      16.39189986       0.06193003       0.21147614       1.75696182
Al       9.17813994      15.14420002       6.03284991       0.85556199       1.59012121      -0.11261652
Al      16.02689998       7.65660999       3.71389006      -0.86155877       1.14914714      -0.77490894
Al       7.17361995       9.29487996      15.70469997       0.64208061       0.13226864      -1.63735152
Al       8.44135005       7.95050997      13.86189998       0.30533960      -0.86322924      -1.46682192
Al      14.61200003       9.47813007      12.45410008      -0.82068196      -1.84024846      -0.87561074
Al       3.59510997       5.20577994       6.66476003      -0.41531969      -0.53478232      -1.25003264
Al       3.22793993       8.39947008       6.88612015       0.31520020      -0.79784729      -0.10036396
O        2.51220992      15.57800006      11.63480017      -2.51066738      -1.72504129       1.45138144
O        4.85604001       2.90996005      16.35229999      -0.01013727       1.39361295      -1.15777464
O        1.30255007       8.46893998       3.52839996       0.25334822       0.78342291       0.24938680
O        7.88898000       2.42024996      15.68370005      -0.44678440      -0.38535685       0.21304761
O       13.71690007       9.24486000      17.68709989      -0.68666933       1.03334061      -0.26503881
O        0.98073904      12.17620008      12.16720001      -0.86098056       0.45156906      -0.05240786
O       12.93589998      10.27189997       6.28998986      -0.26869285       0.88047115       0.42453368
O        3.23281994       0.31018907      15.58409993       0.82790999       0.16631580       0.57761977
O        8.91830997       1.14966002       2.08084008       0.90442864       2.33060857      -1.10373516
O        9.50386001       9.28037997       5.80504009      -0.03716485       1.20437893      -1.18807291
O        8.31923999       9.73263999      14.15060013      -2.07999006      -0.17566078       1.29943844
O       12.65120005       5.28278996      10.74699991      -0.48902308      -0.52313458      -0.63500663
O       11.17769993       5.51223002      14.97799984      -0.50054914      -0.53533212      -0.00796246
O        3.26197002       9.93955007      13.02460003      -0.21407192       1.06587718      -0.36754068
O        9.66443995       8.80153993       2.88198997       0.29138297       0.12249563       0.12669411
O       12.89120007      10.08009999      12.49369995      -0.04953138       1.22542907      -0.37160541
O       13.07310001      13.35410005       6.17394996      -0.85992028      -0.65788630       2.17208979
O       15.75449994       1.87049005       6.99759013      -1.31672389       0.95966339      -0.11747342
O        4.03636007       3.81836998       7.95016017      -1.35718149      -0.29118474       1.08776658
O        0.73053197       4.84756997      17.65340017      -0.84564447       0.36866624       0.33695104
O        2.17520004       7.29657004      17.05719996       1.30460790       1.95091887      -0.07156735
O        5.37480996      10.65600003       3.68129995       0.41741782       0.56103049       0.86083319
O        3.69275995       4.77532005      17.39900001      -0.73104368      -0.94562522       0.36111150
O        9.14988003       4.04903008       2.82571015      -0.08284810       0.72101960       0.07384602
O       11.85450004      13.51930006       8.52038987       0.45447043       0.53632844       0.73936226
O        0.61308205      13.21769997      18.17919997      -1.08686128      -0.96811652      -0.72319323
O        3.89628996       8.99328993       8.51707011      -0.46045771      -2.35535284      -1.91365230
O        4.19641996       0.99488400       8.26915986       1.77565680      -1.44947206       0.87997695
O        5.07440006       3.82819003      10.59879990       2.86103434      -0.82951844       0.42175334
O        7.99135000      13.97490006       5.55237009       0.07181503      -1.35373273      -0.82853835
O       10.05200006      15.08070004      10.43760015       0.08818214       0.18722786      -0.49587633
O       14.53720001      12.63020003      11.56650015      -0.65147952      -0.21953177       0.20884258
O       13.29879995       5.01764998      13.69900013       1.15008590      -0.08823288       0.95729913
O       11.74070003       8.53062994       4.78511009       0.28044212      -0.55499613      -0.84118025
O       13.01100002      16.04890001       7.89265011       0.84131578      -0.35479270       1.13626589
O       14.80419999      13.78620008      16.05990006       0.51797260       1.08576741       0.18419573
Al       2.01361003      12.26450008       8.82777002       0.18893333       0.12106302      -0.20813406
Al      15.35910001      15.41670001      15.25339993       2.06488441       0.08158534       0.30304170
Al       2.81171003       9.80849000      14.78280006       2.12781213      -0.33184371      -0.77085666
Al       3.38273996      15.46180005       8.80862995      -1.39122535       0.15399762      -1.84904589
Al      15.06700000       5.05559008      17.57569983      -0.00057864      -0.47851067      -0.67703554
Al       2.16170996       2.45244001      12.16260001       0.14666004       0.73085005      -0.99805300
Al       1.62195995      14.00980003      12.37190010       1.07454228       0.59227729      -1.41227022
Al       4.50805997      12.91650002       6.98316995      -0.15554912       0.69456764       0.53169441
Al      11.69490000       6.76518006       5.65512007       1.58376914      -0.09032584       0.26963767
Al       1.04913006      16.06274398      10.61370007      -0.45031278       0.33818189      -0.42992097
Al      15.45840002      12.71580000      17.23640011       1.04069042      -0.43985995       1.67433332
Al       6.62295998      10.20630000      10.26970001       1.96123809      -0.90389746      -0.08480137
Al      11.37930000       9.03601998      12.33820001       0.35805267      -1.22086988      -0.49223021
Al      10.73780000      13.39809996      10.10690015      -0.98070910       0.33354617      -1.48986394
Al       9.54311004       4.79128007       4.31832012      -0.06347838      -0.11460473       1.14757238
Al       1.97876993       9.49169999       4.77500989       0.24062842      -0.98274048       0.01948471
Al       3.03888995       2.26131000       8.69686002      -0.86350475       0.87831383      -1.88074772
Al       2.56549004       4.85324993      13.68939985      -0.70737246       0.24259517      -1.60306840
Al      11.37610005       2.34705000      17.32330008       1.59343450      -0.28065534      -0.34292310
Al       0.67935703       0.89557198       7.89975985      -0.57453744       0.65120724       0.36292176
Al       8.25028997       2.65215006       2.60031987      -0.49031166      -1.29042161       0.65976314
Al       4.80697999       2.60576995      12.01210001       0.77097465       0.80712186      -0.95317119
Al      15.71409996       8.39561995       9.93468004       0.02168063      -0.19110196      -1.72211295
Al       3.57798994       2.92575002      17.67450008       2.10824548      -0.52665943      -0.06931149
O       15.89500005      13.63930007       5.00229987      -0.70913211      -0.63016058       0.47710648
O       12.74130001      12.08600001      16.02489983       0.35974953      -0.82350763       0.26119739
O        8.82811995       9.43567992       8.44344014      -0.25378542      -1.02136658       0.59091509
O       10.05030005      14.52340001      13.90299997       0.38159419      -0.90750394      -0.53091352
O        5.00984002      12.02669999      18.04200003      -0.30630028      -1.45421280      -0.86643896
O       15.66889997       4.32474998       6.38308992      -1.01230974      -1.02085608       0.46125191
O       14.78310002      13.95150004       8.71239017       0.61888820       0.28792765       0.04445453
O        2.05905000       4.41473003       2.89080017       0.42136158       1.02662634       1.56324261
O       14.31039994       7.72498998      12.66860006       1.05972225       0.59900513       0.26356983
O        3.01465996      14.92739996      18.35450002      -0.30926162       0.29999983       1.18777941
O        0.99150605      12.80169999       7.38245000      -0.49613752      -0.71185011      -1.48148253
O        8.82797002       6.24322005      14.48319983      -0.23109726       0.47649441       0.47259219
O        6.18805007      10.85880003      15.54769991       0.56598060      -1.84790648       0.40445063
O       11.11920003       3.30106996      13.77069997      -0.71940236       1.81609826       0.44340399
O       13.10620001       4.27573993       3.48276011       0.34616357       0.06978330      -0.53450840
O        2.06375006      11.41119993      14.89170015      -0.66068002       2.59730665      -0.18495281
O        2.80087000       5.76312995       9.85582989      -0.57874965       1.90814494      -0.08156830