LAMMPS data file via write_data, version 2 Aug 2023, timestep = 27000000, units = metal

10000 atoms
2 atom types

25.47163289911647 74.52836710082875 xlo xhi
25.47163289911647 74.52836710082875 ylo yhi
25.47163289911647 74.52836710082875 zlo zhi

Masses

1 26.982
2 15.999

Atoms # atomic

8810 2 26.865557490850897 27.347409149426724 28.423612584222358 2 1 2
2483 1 28.539226606975976 27.63126398749763 29.017964846877828 2 3 2
75 1 26.111990711107268 28.089581003403925 26.941529780814285 1 1 2
1825 1 28.961308233347214 27.059677421152127 26.019525982476548 2 -1 -1
5168 2 27.6294642981567 28.44372851343511 26.01848246432771 -1 0 1
6061 2 29.279516682031833 26.544222206407078 27.817922685025547 2 1 1
9937 2 28.617667289685436 29.435004692047183 28.56505187994547 0 2 0
5789 2 27.69205297881963 25.870655631601814 25.503729220512163 1 1 0
753 1 25.47394383365194 26.906978082431866 29.557715132336114 -1 2 2
3146 1 31.828447880511373 28.250703768415754 26.298689387627263 1 0 2
7085 2 31.984348398974536 26.90738824438629 27.5567850348921 3 1 4
8658 2 30.151848264038378 28.670924859012707 26.342746006748765 0 1 -1
206 1 32.51653030643112 27.20297808106635 29.3290898250913 0 -1 2
2054 1 30.758902582518893 25.712893748073103 27.397078252251685 0 -1 3
9648 2 30.19020142897878 25.583104356722146 25.672565054991818 1 0 4
2334 1 35.53895038802511 27.16514495867872 28.16701000078853 3 0 3
7584 2 35.10326754588824 28.833697910773775 28.064097269655385 -2 0 -1
9350 2 35.845707533207694 26.20905511006205 26.766814834160225 2 0 -1
5642 2 34.123899958667494 26.385283021601335 29.07921160624789 2 2 -2
6579 2 36.888582813893464 27.086801427716697 29.377286016150542 0 0 1
1136 1 37.73273848567483 28.651243635031722 29.406568890344765 2 -3 0
8158 2 37.77429898920383 29.11414805077372 27.682503549867786 -1 1 1
558 1 39.05938150052486 28.6876664514812 26.407603055845176 -2 0 1
1025 1 40.77726605908701 28.551215058082345 28.673230345835417 -1 0 3
6326 2 40.801692936380014 26.94127649673621 27.950167460670222 0 0 3
9689 2 39.83987794216575 27.321840312966867 25.600475787289216 0 1 0
2123 1 41.546253843900004 26.7471011044716 26.163560087009124 3 -1 -2
2157 1 43.763540441893085 28.118983956250638 28.81336315264772 -3 1 0
3489 1 44.55491821359992 26.376458825285223 26.58644881560556 -2 3 -2
7274 2 43.07044637848358 27.287429466898185 27.07425191180617 0 -1 -1
9663 2 45.36733443999057 27.186945206241838 27.951963727461433 2 2 2
7617 2 42.31298976176869 29.373722929115715 29.126751115959923 0 0 -1
5778 2 47.54426393112037 28.930217261821205 28.926148093039014 0 0 1
151 1 46.77403825177472 27.256344468755383 28.950347930109313 -2 0 0
9578 2 47.85143161922258 26.086332090902026 28.355925410165984 1 1 3
6612 2 48.21395954457151 28.405590537921384 25.990923265753413 2 1 4
1621 1 49.59723115368324 25.911832626843115 27.824257753985258 1 0 -1
5324 2 49.5845486825001 25.83372876130842 25.962669781405715 3 -3 4
3945 1 49.95326656946886 27.621377637225656 25.749176530458865 -2 1 -2
2038 1 48.272684404565226 29.478700542597764 27.426464831378876 -2 3 -2
7606 2 50.24348729266302 27.615373113685806 27.552825287534418 -2 -4 0
4515 2 52.620949045130175 28.79287842988183 27.177589120531376 0 0 0
942 1 51.22937409989221 29.080508133953195 28.39446826456947 -1 1 1
8417 2 53.23950629998457 26.00470551386528 28.202107533411727 -3 2 1
3964 1 53.848502299957815 27.689409607212692 27.73132122794211 2 1 2
5073 2 50.646179710423795 25.491690366436572 29.506101360585674 -3 -1 -1
1416 1 52.70764804809872 29.258869410551476 25.497543216777355 0 2 1
2383 1 56.91345240893677 27.275150820635098 26.733923664141653 0 -1 1
5538 2 55.13879895219806 27.428957164516035 26.61621958130351 1 -1 2
4323 2 56.91359296356778 27.784064782533083 28.513078198743777 -2 1 2
114 1 57.336120362451005 25.950506060052003 29.257967984867506 0 -1 0
8116 2 54.35800378385332 28.319485959300444 29.287234286440228 -1 -2 -2
5061 2 57.232335034389806 25.53843257482399 27.380291714494557 1 0 -2
3981 1 58.53325071473066 28.71222677448285 28.517569718875045 2 1 -1
9887 2 59.07198664626685 27.822953615906656 27.022773976554703 -3 0 1
4918 2 60.89209824921213 25.82054667140328 26.112647454574343 0 3 2
1077 1 60.36948972329539 27.582628450749663 25.94400421187507 -1 -1 1
5030 2 61.965463615994636 28.446819355844603 26.062474076527373 0 -1 1
1576 1 63.69433064881928 27.607433724740446 26.299960650232364 0 -1 0
6173 2 64.09539246746299 27.888190249289945 27.93085051867859 0 -1 0
2052 1 65.44650811802637 27.055604139657945 29.09192523950479 1 1 1
6104 2 66.11015682053062 29.18097010527353 29.029888982929798 -2 0 0
8409 2 63.732513789844596 25.709068895331352 26.207580929000255 1 1 1
9079 2 67.54133531479047 26.260473206704944 26.235914070128256 0 0 2
9347 2 67.13856424572015 29.25788962752175 26.47641293428577 1 3 -1
5245 2 67.34464807444229 26.803869768281615 29.074441818262997 3 0 0
1206 1 68.01081251398116 27.91094309025707 25.715138069390747 2 2 0
6710 2 69.69769727887928 28.158365312422212 25.85541935765598 -2 3 2
7721 2 69.24953223805645 29.219822645932595 28.672995450594293 0 2 3
3985 1 70.43625906398317 29.40578499823441 27.10288840809946 0 1 3
5000 2 74.19408380628208 26.896189009001446 26.11226136990784 0 0 1
9297 2 73.2712798661602 26.060713110101236 28.712548943690543 -4 2 -1
8554 2 71.6698972952507 28.806189910294094 28.301108345326206 2 1 2
1185 1 73.50127435729169 25.518841724881018 26.969674012579553 -2 -2 -1
4146 2 74.18032464118724 29.539512225887222 27.29588533957277 -1 1 1
2051 1 28.97036877055407 30.001841368457722 26.701729935408085 1 -1 1
5486 2 27.53475445351886 31.24993355549982 27.232142778235122 -1 -2 0
6314 2 28.581509775807 32.73576524502919 29.10764360504856 1 -1 2
625 1 28.732047126937914 32.81051269418616 27.29389011798673 0 1 -1
1205 1 25.759281564965207 31.272675493397784 27.40835415037116 0 -1 0
6556 2 27.799932828531308 33.26988708964847 25.725988185273263 0 -1 1
5516 2 32.837796525395035 29.668945337210594 26.655751164886805 3 2 -1
6523 2 30.038902022659737 31.52998245265232 27.15420607929267 1 0 1
1098 1 31.699100300409988 32.105925881666046 27.105147637123295 0 0 0
9946 2 32.91730740411742 31.53064169425698 28.41668239289625 0 0 4
9496 2 32.476133186991056 32.28587490759896 25.523020190171938 1 -1 0
2227 1 32.859527386606956 32.99363531246213 29.461613312580315 1 -1 0
3936 1 33.857603986605696 30.02410305778604 28.49269391165377 0 2 2
2100 1 36.27060176148927 30.27009767258435 27.54076608623278 0 -1 2
6918 2 35.48524624906066 31.12121676987983 28.954192175288142 0 1 1
9054 2 35.15794328046104 30.46201877561932 26.027544373021332 0 0 1
9415 2 37.37252775713926 31.533040985028165 26.903069157860504 0 -1 3
9806 2 35.84089969595138 33.474381872166305 25.628532412036762 0 1 0
4361 2 40.37156126843564 29.565075130584383 27.158049605198812 0 2 1
560 1 37.80149463959317 32.81830631888109 28.075203747015557 -3 1 1
6280 2 39.48692720064328 33.04874951184652 27.47850300924896 0 0 -1
740 1 41.231833587335466 30.749594228371755 26.124642631892538 0 -1 0
444 1 40.934479165440315 33.11655845930045 28.58480710207758 -1 0 0
2042 1 39.71624656553853 33.16405226656528 25.745191577298733 2 1 0
6935 2 41.880910929783795 31.965241978922712 27.309339275096505 1 1 0
3518 1 43.450198749127864 32.85099481085004 27.59439413562025 1 1 -1
8551 2 44.552837059151194 31.544532389932776 26.803915973037363 0 2 2
4232 2 43.471162323573665 32.054815441205946 29.418192061505476 2 1 -1
9862 2 45.196143773704264 33.56835453502122 28.145496928766043 0 -1 1
1982 1 44.25563422733184 30.324698131324755 25.552718441634184 -2 -1 1
5639 2 46.281220850064464 31.435440591954908 28.95985863329455 0 0 0
4676 2 47.42115288771169 30.846718527625264 26.50221484559257 -1 -1 2
1317 1 46.297022329442335 32.161681729540526 27.2431033119711 -1 2 -1
4416 2 48.132125346234425 32.98287395450383 27.63554286283236 2 4 0
3845 1 49.61284202231559 31.98576034140115 27.29875149576533 -1 2 0
8811 2 49.80869207915569 30.299786212638327 27.889342701355325 1 1 1
5679 2 49.691647176061 32.24828152676001 25.52495009218275 1 -2 1
4766 2 46.471716656909834 32.9831604524741 25.53560471009051 2 0 -3
6138 2 51.04782431374308 32.83905937883206 27.954662557654665 1 1 3
442 1 52.40847162533664 32.178056803134936 28.955255098049044 0 -2 -1
8765 2 52.34388730022713 30.459300927563753 29.24564517513571 -1 -2 1
4385 2 53.828515026138575 32.86017685035759 28.325961819692022 2 1 1
3678 1 55.43655460839587 32.231428947498884 27.85491249558634 -1 -1 4
8891 2 55.87742824907514 30.764980092185823 28.77739111315942 -3 -1 2
9819 2 55.6742364205202 32.23405515788162 25.969360482638262 -3 2 -1
8176 2 56.91946464872727 33.01972906666121 28.488627622685968 -2 2 -1
2906 1 57.56257802444486 31.475354259174587 29.327975731894124 0 -1 -1
8283 2 58.418135017197045 30.440953755171947 27.89453245153884 0 -1 1
6648 2 58.62590664760435 32.82616609688167 26.3982127133556 2 1 2
1108 1 59.50248263321595 31.307057814640924 26.83094631780873 1 3 2
4825 2 60.9591511045115 31.859771240505662 27.700318186041564 0 1 3
3745 1 60.642480290649466 32.85184833198165 29.21991218282479 1 0 -3
3323 1 64.59067023412 29.712193947604646 28.27287601013893 2 0 1
2564 1 62.723745896438004 31.71824840077911 27.4033307474812 -3 0 1
5045 2 64.9626326050088 30.84686561092225 26.958119059864288 0 3 1
7726 2 63.53873420385667 33.01325625316041 28.257567067233072 0 -1 -2
4284 2 63.13369636279411 30.579485928508973 28.80413655759787 -1 1 -1
6146 2 62.55928056873752 31.430446382160056 25.694020365297035 2 1 0
818 1 66.22094198903817 32.22855815459931 27.10308278600851 -1 2 0
2349 1 67.59625260805042 29.755043694519564 28.196021415658098 0 2 0
4353 2 67.53538413395476 31.66202363644781 28.363572967487872 -1 1 1
1690 1 69.13263616956655 32.38616409955915 28.034745428589908 -2 -1 -1
9625 2 69.44779782105007 30.942911493518032 26.851567117292227 -1 2 2
7978 2 69.16881391435369 33.30481763883341 26.493170222601865 -2 1 2
9480 2 67.01513032035069 31.797865508125064 25.56614635910462 -2 3 2
4908 2 71.6602077519775 29.72731022797273 25.63546652573104 0 2 0
9426 2 74.3968832797529 33.16259165675099 27.75104938049042 -2 1 1
1970 1 72.97773374561211 29.932069318007866 28.53430328937109 -2 -1 1
8250 2 70.81707129920481 32.55560780909098 28.81203538258411 -1 -2 -1
7685 2 72.57790745006105 31.39505393340705 27.43937404388207 -2 2 0
364 1 72.50441781425994 33.06122059318119 28.168303098568416 0 3 2
6087 2 74.1698938405624 31.01066417594732 29.35156757743247 2 1 0
4374 2 74.46330754882138 31.573701667491335 25.524376437643795 -1 0 0
1019 1 72.64396190614625 31.22333458532607 25.524188999369997 1 0 0
6340 2 27.350481967183 35.12843808093175 28.184817216757995 0 0 -1
3157 1 28.402137643102762 36.145318920859665 27.04539401381995 2 1 1
1776 1 25.725091889664945 34.882282384382336 27.55636880223579 4 1 -1
7209 2 31.79319512483066 33.67250039009138 28.162764385155022 0 1 -1
7118 2 29.677944803961537 34.39421857230559 26.843007238999757 0 2 2
6808 2 29.80344682999042 36.49443611291193 28.05510768579935 3 1 3
156 1 31.172562765081224 35.33794649712451 27.907131158012646 -1 -2 0
8780 2 32.32379448865318 36.20072461055508 26.664003255112554 0 0 -1
2199 1 33.7580842103665 37.36415386162981 27.058426651859232 0 0 -2
1874 1 36.39919377595636 35.904947989896186 28.5604355973917 3 1 -2
4777 2 34.60750774822618 36.48891611561625 28.451405899887767 2 2 0
4430 2 36.63512958111117 36.52108681529954 26.798539244380287 2 0 -3
621 1 36.80055456856893 34.97820699632131 25.88228985028636 0 -2 2
4793 2 37.03303288140147 34.311551955569485 27.7969039973521 -1 -2 -2
5347 2 37.96925476867155 36.954860152056796 29.155668987485953 0 0 -1
5280 2 40.31836962437192 36.34590975754992 27.7240043762597 0 1 1
2869 1 39.70379216883253 36.10531120687372 29.367408131051278 1 -2 0
2908 1 39.721912009019746 37.735553762453975 26.893453630556028 0 1 1
8660 2 43.7996814246886 33.8869080959041 25.71369307428667 0 1 0
2593 1 42.43505448454307 35.95315736100227 28.298983529562083 -1 0 0
4292 2 42.35375947486699 34.25100924715281 28.09870859331452 0 2 0
4819 2 42.78148641433125 36.44185307293667 26.603161771665906 4 1 1
6401 2 44.11004958858159 36.038371317497194 28.937822656020714 -2 -1 -3
2914 1 45.57170857199781 35.0661470755763 29.214759629553583 1 0 2
1356 1 44.63178620829787 37.71971812757427 29.459684407199823 0 0 -2
1992 1 42.574626913621415 35.08297537259193 25.474121178646428 -2 3 2
7207 2 47.055105011100096 35.60540123327101 28.244205557672363 -1 1 2
3657 1 48.143791635739035 34.67098853388212 27.232505726063184 -1 1 3
1441 1 49.406681425069735 36.7407962498598 26.212893588616865 -1 -1 -2
3888 1 47.39799175511584 37.415032013958786 28.725816295808528 0 -1 2
5520 2 49.84250852561935 35.34604683648495 27.43717424869552 0 1 0
5975 2 48.17817297979336 35.494729584336 25.68018555285113 0 -1 1
2911 1 51.38211505015775 34.50859429900521 27.363859891143097 3 0 2
8066 2 52.477496806682446 35.35121537611183 28.414605789315516 0 1 1
3774 1 52.11063181764792 37.135458646367034 28.10015175130611 2 -1 0
5713 2 51.277911480202704 37.06091282272462 26.5364250099152 0 4 -2
6581 2 51.79561918783084 34.32533447534325 25.681774720020645 3 1 3
1365 1 55.11924489685375 36.80876145976266 27.37831362609918 -1 1 0
5941 2 55.1656236099421 35.526579970698776 28.565348477635318 -1 2 2
9168 2 55.027802987723014 36.08488283477553 25.808401062026352 2 0 4
3948 1 56.698958828953806 34.77230381483179 29.01541687352731 1 0 1
4238 2 57.678169247798266 35.428383606745264 27.55741229297706 -2 2 1
322 1 57.963135552586685 37.06888728960204 26.824859421010384 -1 -1 2
1497 1 59.01538056179747 34.4515723107165 27.087736277507748 0 0 0
1679 1 61.51854048927327 36.0169610441722 28.89562186576849 -1 3 2
6431 2 60.25500015060108 34.4864799875618 28.532930860432142 -1 0 2
4144 2 59.858547489824 35.192337134355405 25.756103142393258 0 -1 0
1560 1 61.57830316330287 35.604569402952976 25.633685529209615 -2 1 -1
9455 2 61.99369599727726 36.12729469662508 27.17632371827571 0 0 2
7930 2 65.75181228624339 33.94101709664419 26.691244378297842 -1 0 0
8996 2 64.53710577125457 36.07881968261523 27.49450889860764 0 0 3
1659 1 64.31402450352442 34.56843589652658 28.530195823465537 1 1 -1
2995 1 63.42724545848415 37.52272381519449 27.60580492978567 -2 2 1
441 1 66.1038556116365 35.792443045273316 26.584879722547008 0 1 1
9206 2 66.21544936554686 37.730244237351236 25.524274448862887 -1 -3 2
7113 2 68.79446799345185 34.00645348669497 29.055677798836953 0 -1 0
9036 2 67.07832516966707 36.427718105071854 28.081323463495885 1 1 1
1298 1 67.51527775540809 35.11389270515825 29.33584240231259 1 0 1
6355 2 74.30967506694894 35.574787028021326 25.95505928921985 0 -2 0
756 1 70.73986578866635 33.91348890425383 25.978455359988143 -4 2 1
1241 1 70.70671075690235 37.30079356348591 29.04551629083384 -3 0 -1
8599 2 73.73080226577662 36.20120706898618 28.171176180669107 -1 1 0
1601 1 72.64487375047382 36.10689073625747 26.67311521841998 1 2 0
7140 2 71.88665109020022 34.52929080850355 27.08732359462753 -3 0 0
8257 2 71.13706786371137 37.04350593202853 27.424833735294346 0 4 2
9486 2 27.68702686977083 37.898001450869515 26.927881941546744 -2 1 3
3185 1 27.32079504416725 38.45944026554169 28.630769888169397 0 1 0
1274 1 28.842823134311192 41.10493321256397 28.13305423011666 1 2 3
9600 2 27.396700720789973 40.30503397193222 28.572033504630777 -1 1 2
6841 2 25.676144259476345 39.81536529181889 26.29046232680351 -1 2 0
7222 2 25.568709254427922 38.707544802529064 28.90981909836762 0 -3 1
191 1 26.9835402777883 38.839376423139 25.50219721419861 2 1 1
3385 1 25.560069124773374 40.355853582298096 28.220492555138012 2 1 2
6012 2 29.904306342150445 39.935999971268856 27.318794876455325 0 1 -1
1923 1 31.353199128460567 39.52045004822447 28.25806808435641 0 1 0
7898 2 32.0735393709971 41.220426377540186 28.313545611221485 0 1 -1
9736 2 32.89565697226231 38.652485125435014 27.92514413438023 1 0 0
3331 1 29.995795601468426 39.94949036353925 25.575737999020106 1 2 1
196 1 34.250018551828546 39.961106836460274 28.249559637997525 1 0 -1
5300 2 35.30580177625101 38.8591866182976 27.236519979360565 0 0 0
1649 1 36.76886823141028 38.530375740820645 26.317120195974134 1 0 0
6521 2 34.376340778897294 41.37030522254398 27.282247530211947 2 2 1
3184 1 35.025479987139335 41.20424740215917 25.62085884487936 0 1 2
9516 2 37.82393783259066 40.704928986527925 29.40729016538953 0 1 2
57 1 38.144425044746086 38.90834379541887 29.240022367066654 1 0 -1
9779 2 38.20393399389985 38.71600783697981 27.314498897536332 1 3 -3
5878 2 41.03023504521804 38.9640835141255 27.391477039074434 0 1 1
6959 2 39.81059603646201 41.35347504410652 27.24662655799305 -1 1 1
3872 1 41.30720090934587 40.50876208628903 26.547124720707735 -1 2 0
1232 1 41.59467213391017 38.808228331764475 29.129034022926557 1 -1 1
9035 2 45.17070424817137 37.90317574827572 25.920010662589792 2 1 0
1749 1 43.51245499699466 38.07344915901192 26.62579315461379 0 1 -2
8952 2 43.25977646254319 38.44910658526277 28.416854160386006 0 0 2
6310 2 44.91792466405945 41.042459922169165 28.72043505217542 -3 -1 0
1289 1 43.30257187935702 41.407553949835076 28.894687999784345 -2 -1 0
9987 2 42.84711110660953 39.485584467297485 25.840905112273113 0 -1 1
7636 2 42.40122385857046 41.78607818644456 27.282843740119375 -2 0 4
7012 2 48.290965862650026 37.82912201518764 27.186057841368314 0 1 -1
9712 2 46.02598291014111 38.58872043924541 28.335105391295244 -2 0 0
6508 2 46.65180872919126 40.441501169889364 26.2752863011281 -1 2 -1
1122 1 46.65743794629421 38.65882642888305 26.446577515412443 0 1 2
2629 1 46.44295494345977 40.98667207441362 28.058842039177456 -2 1 1
7988 2 48.10649185332292 40.72073557334271 28.74265822065022 -2 1 1
7804 2 53.72723963438861 37.927286331534816 27.80379469810962 -1 1 0
3415 1 52.349423709895504 41.40222742801876 27.68683439761327 -2 0 1
9473 2 52.65805379103686 40.24276425007733 29.057353486125162 1 1 1
9316 2 53.85452584155064 40.64655902246456 26.91643476115944 1 -1 0
9106 2 50.53220444487346 41.68084099298845 27.57352917417729 -1 1 2
1893 1 54.07550477892404 39.60200020621011 28.310497672107086 -2 1 0
5495 2 56.589616782028315 37.91850248871904 27.53620517100335 0 -1 -2
1056 1 57.250887507358385 39.56183860279603 28.505747239538103 0 0 -2
8096 2 55.573482957267586 39.82922676353 29.265151142619423 -1 1 0
4668 2 58.051814534613506 40.185597265620835 26.880014882368222 1 -1 0
3013 1 54.22682813804205 41.6669163207538 25.524410284253335 1 0 0
9132 2 59.36649151013519 37.89237497183606 27.483039040993706 -1 1 -1
8134 2 61.05143435658015 40.238260600712486 27.833697846117886 -2 1 -2
3447 1 59.852700614865384 39.534615333523064 26.973012573321398 0 -5 -2
3062 1 61.713207253594845 39.57168131409329 29.205732439697773 -2 1 -1
6464 2 58.44707428016307 40.87880822644777 29.409574488130513 2 -2 0
9737 2 62.34707387333503 37.92530120507408 28.91531000317087 0 -1 1
7989 2 65.01018976210915 38.576233683681565 27.945034701556573 0 0 -1
3268 1 65.02076861120955 39.02399197267074 26.182967304514282 1 0 -1
4378 2 63.33295316861331 38.596318054925845 26.09855107985235 -1 -2 1
9114 2 63.13070339223866 40.7091475352027 29.51107893437902 1 2 1
2667 1 66.67418500423413 38.20963718789763 28.460447137196024 -3 -1 1
7286 2 67.59067618912613 39.149593992281524 27.22091077304266 0 1 -2
2264 1 69.08303199948656 39.89004427176955 28.047714110453484 -1 -1 0
8315 2 69.39011939306971 38.436162010525194 28.990053079325868 0 -1 0
9602 2 68.24071783427513 40.692729391909005 29.469515583377337 -2 1 -1
7106 2 70.00466186636768 39.400393527374774 26.38395572064899 -1 3 -1
8547 2 70.24414277865205 41.3344486203938 27.884855649245175 1 2 0
302 1 67.87162850664126 38.655102585159135 25.529253976092306 -1 -4 2
2669 1 70.6979254002147 37.758135293607495 25.807349365895746 0 -3 -2
2073 1 70.45528031180967 41.03427944520701 25.925755233607504 -1 2 1
8179 2 72.77027216278404 40.42986757008173 28.94923825433605 1 1 1
6481 2 72.1544430685377 41.45671959112193 26.205161124151303 -1 3 0
1884 1 72.08860803775586 41.74975535497842 27.995883466269422 0 0 0
6433 2 28.210472510753124 42.29679976834069 26.983207638765332 0 -1 1
3520 1 26.74314472921122 43.26654395254509 27.62806463224588 1 3 -1
8406 2 26.164573298557936 44.543532544050784 26.481740744897934 1 -1 4
8681 2 27.52271012537374 43.73297788564174 29.13615800690163 0 1 1
6719 2 29.372455779000727 44.676397133024125 26.037245349368217 0 2 0
2061 1 29.062576589714332 43.061880258195714 25.59381246415165 0 -1 -2
4764 2 31.685483163157066 43.51342516095039 28.56129060959636 0 0 0
3648 1 31.491739380220196 45.23936673444014 28.8846058363703 1 1 -1
3054 1 32.968759883293224 42.54248260218979 27.403355283593495 1 -1 -2
9155 2 29.803793965066017 45.85798081493151 28.547048767930495 -1 2 2
5181 2 29.55974910326433 41.866944449295744 29.529484415874794 0 0 0
7290 2 33.945593554953895 44.03204637469195 27.04157939580395 0 0 -1
2858 1 34.45937520894857 45.38486019374792 27.938797196224066 1 -1 0
6704 2 36.23382188242366 45.138086767926666 27.686356164532445 -2 -1 0
214 1 39.108323647682354 41.86495725824254 28.91122179746992 1 1 2
3168 1 37.81781619722492 44.84960174728042 28.457105988127253 3 0 1
9288 2 38.358939368642424 43.253418352086726 28.031628818744483 -1 0 0
330 1 39.14705596139324 42.79659222160602 26.447782224674704 0 -1 2
4883 2 40.59397435595586 43.654458111868465 25.983717784947068 -2 1 0
7620 2 41.408558271302994 44.616436808540215 27.985298701464487 0 -2 0
9273 2 38.59031444214767 45.721945271097354 27.112845117478376 1 1 2
459 1 40.47850656731721 45.742943571493456 26.92195818836997 2 2 -1
3408 1 42.09628681169565 43.444921578292394 26.891641181844033 -3 -1 3
7183 2 43.580879854569986 44.25023372807213 26.28471055756832 0 -1 1
373 1 45.08266822725503 45.32526231714973 26.852226305719856 -1 -2 0
7497 2 44.83609204551465 44.94686344133491 28.76515168683427 1 3 1
608 1 48.97485346171738 42.25355492081903 28.339587032980074 2 -1 -1
5961 2 48.82959920005813 43.26909768960776 26.681062877046745 2 1 2
1095 1 47.57075792191408 44.439711749382894 26.246817664178334 2 -1 2
7184 2 46.964173439123805 42.73195268453891 28.313088410969872 1 2 -1
8721 2 46.913297239778885 45.528556105771976 27.50025774041207 0 1 2
497 1 46.116748128137495 43.88010483520293 29.399951104780072 1 -2 0
6468 2 45.97359606286081 44.24849025602454 25.481731420656416 1 -2 0
9110 2 48.76113114202384 45.63578208474874 25.581006499599354 -1 3 -1
160 1 50.441403188426406 42.758642362722505 26.066022456295286 0 2 2
8330 2 51.21548754054463 44.34201514287132 26.435206808593723 -1 -1 0
3319 1 53.046025818898286 44.33782959299699 26.85275076622514 -2 -3 -1
5862 2 53.09707536788562 42.954804392939565 28.059464472270154 2 -3 -2
6364 2 53.48877318372401 45.35395869840473 28.279543326481196 -2 -1 -3
3067 1 50.12551487320154 45.6318558109096 26.73272081391751 0 1 -1
1200 1 53.259347575893386 43.97112554861861 29.489500613664838 2 2 -2
9672 2 53.18652467302732 45.83694144491192 25.669842478063966 3 -1 3
7397 2 52.16086785395692 42.01041673771967 25.628859399750468 1 0 3
5295 2 54.22570592210552 43.580842988313464 25.813503578563243 1 -2 2
4048 2 56.26270983348465 44.99457505595538 27.08491814413821 1 -4 2
9723 2 57.42307079259357 43.58844121112365 29.216114523605484 -2 1 0
2489 1 56.27405163723435 43.776661086716985 25.768948585517283 1 0 -3
2527 1 57.95128984960232 44.58885506810161 27.82614746711524 2 -2 3
5715 2 58.03850851876481 43.82727122488646 26.064737560885316 -2 -3 2
5808 2 56.15745176269243 41.98067505308446 25.698835163200044 1 3 2
830 1 61.27167367843164 43.466745889605576 27.377015521351485 1 -1 1
7805 2 59.60657146748516 43.39094286200086 28.196285942558085 1 2 0
9745 2 61.61736566000665 45.127816769360265 27.836025944048263 -1 -1 0
4803 2 60.959045140885344 43.47281463488042 25.610404911460435 -1 -2 -1
3675 1 62.308443425477236 45.31313328197128 29.46310972025838 0 1 -2
7776 2 65.08822343999063 42.33585090118207 27.848892033948623 2 1 1
2240 1 63.60228550626995 42.2429428837074 28.870913597453352 0 -1 1
7678 2 62.74364883643894 42.49969295492323 27.23386586874659 -1 3 3
2802 1 64.34097401673631 42.269184894876716 26.105867374324447 0 1 0
1871 1 65.73466402227143 45.26427922493122 25.977278774751177 -1 -1 0
7644 2 65.78057106411086 45.07396636060114 27.767633770858673 0 -1 -2
3239 1 66.28239269704792 43.51723365989873 28.43663067522185 -1 2 3
9822 2 64.5391882663102 43.95994573563415 25.56074133374389 1 1 0
6805 2 67.93951248571818 43.15281300489719 27.749475518031723 1 1 2
175 1 68.63238165460768 43.59104578099674 26.25660987560229 -2 1 -1
9378 2 70.09717358060979 44.56483637944716 26.540724940762487 -2 1 0
6003 2 70.25768070915439 45.025334748586125 29.43516309951452 0 1 0
1763 1 68.49151984314483 42.367362315066345 29.359604417006807 -1 1 -1
7489 2 69.037993413382 42.09109778572838 25.47253529965245 1 0 -1
8735 2 74.47716508601056 42.08896330602807 27.89261486891376 0 -1 2
3435 1 71.33413313139759 44.843755043276275 27.822821838477786 -2 -1 2
7061 2 71.88373043911729 43.36667717237661 28.708112840573357 -1 -1 1
5289 2 72.58076088539676 44.82580247765678 26.36995641709808 1 1 1
9811 2 27.14328104890074 46.85871690211091 26.068380787078556 3 -1 0
8450 2 28.206313268084656 49.187564046356286 27.91034352074449 1 1 4
3645 1 28.06113434092811 48.64503761878097 26.144347365473156 0 3 2
6486 2 26.472088467136 46.25736664683309 28.766185042980233 0 0 5
3263 1 25.848896435944717 46.31574051038036 27.114180875240848 0 1 3
161 1 29.42137323325126 47.71008595809252 28.281649456443162 2 -2 -2
9629 2 26.43011360998359 49.51595754249084 25.620954267876186 0 2 1
4363 2 29.551270299721544 47.70060647511872 26.42252130794496 1 -1 4
6317 2 32.78269640237814 46.2868442919323 28.22091458469032 1 1 1
4977 2 31.013544123889677 48.58795332985433 28.618918076916636 -1 -2 1
505 1 32.73380083920352 47.93600262795208 28.85307514071113 2 -3 0
4541 2 33.68399322056002 48.95083142948546 27.895898758498003 3 0 -4
1700 1 36.83491918180013 46.387834624883084 26.55981370717239 0 0 -1
9986 2 34.8214263795904 46.7249425884205 26.42440473507369 1 0 0
2027 1 35.014583758273915 48.658291612510205 26.702557049499667 1 1 4
7154 2 36.78614836987107 48.16404387273249 26.83988027030133 0 -2 -3
2877 1 38.087329076401126 49.350079075487955 26.560058198929507 2 -1 -3
7671 2 40.92092652643096 47.155848580331146 28.055922765039348 2 0 0
2243 1 40.49325773878162 48.79619853805186 27.764256963948007 -2 -1 -1
7076 2 39.64593722339965 48.391711483452504 26.24681676447637 -1 2 3
8426 2 38.96460759786036 49.789355298276625 28.12862484450188 -1 1 1
8528 2 41.8469110848708 49.90471267315924 27.706370206338615 -1 0 1
4121 2 44.55270322109304 46.89152862811851 26.514586982364623 -2 1 3
3492 1 43.550036427344764 49.51549318289072 28.420316086953367 -1 -1 1
7432 2 44.1302222346557 48.13280199538183 29.249230019631703 1 -1 -1
8977 2 44.18290428378306 49.86462769670722 26.82680503614462 1 1 1
3340 1 44.036388143415905 46.38370194927805 29.52961047447356 -3 -1 0
9115 2 49.472748064179385 46.14042273942779 28.427459461155625 2 0 4
2938 1 47.7783820306834 46.27532136212536 28.790149163547625 0 2 2
4552 2 48.70196625226837 48.499375136279056 27.765424981998937 1 1 1
990 1 47.65693492041689 49.46084873504728 29.11234051559478 1 1 0
45 1 48.328826349739614 49.55926688657842 26.41534947013273 1 -3 2
6454 2 47.14727470411661 47.79433949886747 29.517428343240667 1 -1 1
1234 1 50.29061477619506 47.83110746982646 28.349924853260887 -1 1 2
7339 2 51.3692431852366 49.34592154911777 28.329008522791916 0 2 -1
5335 2 51.179562899728886 47.20450600200189 26.787945555657533 0 2 2
569 1 52.80238234404665 47.67029980525781 25.983515999215232 0 -1 0
4688 2 52.810290465469194 49.618152012779404 26.31432303298276 -1 -1 -1
9006 2 54.2884899004266 47.761270132066 27.09330532497274 1 3 -1
2566 1 54.33384096080444 49.493604094784835 27.60967883949757 2 -1 -2
2163 1 55.00599221914807 46.177116663922945 27.722859863016144 0 1 1
6062 2 55.86492803053869 46.84061781213252 29.167749641680285 1 -1 -2
2611 1 57.64573679513578 49.79596809913214 26.256128317602588 -2 0 2
4184 2 58.04632871855867 48.413442089368246 27.184539395592896 -3 1 0
9327 2 54.27083818425341 49.17537162665633 29.532937450528138 -1 1 0
4935 2 58.65215933875793 46.15133853676657 28.596280534598797 -1 -3 -3
9284 2 59.98057459027151 46.784544814286456 26.02919073466682 1 0 4
5856 2 60.93266209395863 47.80859751208065 28.191175117966512 0 2 -3
3015 1 59.330636449563066 47.434830047037195 27.466554817691456 1 0 0
1582 1 61.95478058491981 49.2964969943961 27.760915357974397 -1 1 0
3926 1 61.82590988386957 46.4739748138225 26.62042206106721 0 -1 0
5674 2 62.29697587621022 48.23199484509677 26.019542685957926 0 0 1
3831 1 64.97514417737314 46.56865724508579 28.322146889765392 -2 1 1
9954 2 63.75524707686085 46.59840504639237 27.023494533032814 -1 0 1
5230 2 65.03481018473231 49.36130584543937 25.764928632902706 0 0 -1
5999 2 63.64746126207378 49.75056852084637 28.1068647816312 -3 -2 2
578 1 64.1816999018807 47.84243506771284 25.71143401894687 -1 -1 -1
5231 2 66.16618624631855 47.78804461884083 28.464247180411324 -1 1 0
7954 2 65.91538586667161 46.94595649294408 25.606684978102322 -2 -2 -1
7472 2 69.13805551924722 48.451976638974536 28.559507504917498 0 1 1
2277 1 69.34593251226678 49.49104442115657 27.150457031384512 2 0 1
8318 2 67.96422111377075 49.69588581591431 26.051882070484226 0 1 1
2058 1 67.5818913182831 48.088766205523925 29.411682346321218 0 0 0
574 1 70.11068659725929 46.88784847193303 29.397221583120533 0 -3 -1
6046 2 70.61747908132551 48.683038594600276 26.162802155426213 -1 -1 3
4820 2 71.28936858948725 46.644598730283604 28.011943564989693 -3 4 1
3893 1 71.84759127034502 47.36598496908137 26.5680231859074 0 2 1
5518 2 73.61747820070352 47.57194754609296 26.648454503156163 0 -3 2
2270 1 73.87326016737781 49.33476345126114 26.18080519723481 1 0 1
256 1 27.690171669474513 50.546954742589875 29.207092618781513 1 0 4
4140 2 27.688953494963755 52.19782544261247 28.338137408073184 -1 2 1