LAMMPS data file via write_data, version 2 Aug 2023, timestep = 27000000, units = metal

10000 atoms
2 atom types

25.400040028196027 74.59995997173307 xlo xhi
25.400040028196027 74.59995997173307 ylo yhi
25.400040028196027 74.59995997173307 zlo zhi

Masses

1 26.982
2 15.999

Atoms # atomic

2596 1 28.041283957958704 28.733107429207834 26.514982870353528 -1 3 0
9562 2 26.728266284896637 27.29093908470476 25.990177022983328 -2 2 1
8902 2 28.876465120016817 27.35509659769199 27.963729140050887 -2 0 0
3657 1 29.394693963888823 25.841344200555334 27.159337102935343 2 3 1
8002 2 27.053972514598634 29.452908718919648 27.924922230163535 2 -2 -1
1573 1 31.99495200825945 27.37041767602856 26.57489944194699 -1 1 0
6700 2 31.728958332875933 28.472468028775715 27.92549357668955 1 2 1
4628 2 31.226944225394085 25.874986950239396 26.83790170086392 1 -1 0
8821 2 33.827670461414215 26.967331607896366 26.66319132000799 1 1 4
9208 2 36.00111312275541 28.598932265693254 27.650313376543295 -5 0 0
667 1 34.85958868524571 28.371669036651127 26.01847968048076 -2 -1 1
9691 2 34.748956620153244 26.23813625790992 29.258090285962062 -1 -1 0
3225 1 34.425870930343976 25.597255284355832 27.628600329718736 -2 -1 -1
5132 2 36.65284875408635 27.818988256176535 25.529140140944325 1 3 1
1842 1 37.77322644482003 28.929397538283297 26.591676318162715 0 -1 0
4835 2 38.94850869121276 28.171162763564563 27.653527957868366 -1 -1 -1
170 1 40.529393595828154 29.009622707357238 26.92830947509205 -2 2 0
1540 1 38.86460286471567 26.79024306102451 28.743482225971718 4 2 0
8854 2 40.622397895384324 26.396808730273154 25.948513127125075 1 2 2
4487 2 41.200854008888676 29.35380915100794 28.8030339383685 -2 -1 -1
8027 2 39.33540842027941 29.07960991148221 25.46486257349688 3 1 0
7583 2 42.27612302525091 28.59880939170993 26.322145013061075 -2 1 2
5228 2 44.72559134426592 28.142443251218204 27.871441440051992 -2 0 -1
2010 1 45.14980017414324 26.22167933003808 27.607082438426872 0 1 1
1975 1 42.34221272295649 26.362735379936815 25.79866088735182 1 2 2
1569 1 43.73380667957852 29.34773409606293 27.136039175225953 0 3 -1
9713 2 43.555844618908225 25.82844191958411 26.995407618137023 -2 0 0
9010 2 46.08277480972356 26.551691046982164 29.17837206589801 -1 -2 -1
8060 2 47.722194316785206 28.48995287860668 27.55430894681638 1 0 2
1099 1 47.94827232677383 27.427564009549677 26.024327627572195 1 2 0
5368 2 46.46659403495884 26.50646757622889 26.419109210666168 1 0 4
3484 1 46.30285675025843 28.304801426758626 28.815890218733312 1 0 1
9786 2 49.53700146894556 26.715343800902872 26.64132462102106 1 0 -1
2052 1 50.6065598689979 27.792534250179312 27.55198140206999 1 2 2
6768 2 52.25434015805642 27.086938295898634 27.16838383123899 -1 1 1
2732 1 53.415855354153656 27.81545789770283 26.12551835307358 1 -1 2
9978 2 50.254141400003775 29.404608038150396 26.94909595919606 0 -1 0
1846 1 53.081673666273936 25.65631512427572 27.938693949789204 1 -1 1
4268 2 50.63832826344406 27.81433617226449 29.34705808396052 0 2 -2
8968 2 54.14426250724067 29.257247422376466 26.71062812750301 -2 3 2
4270 2 54.677623761489315 26.83813072075004 27.147264371203043 -4 -1 0
2056 1 55.70121858728708 28.321389587115195 27.73330003594127 1 0 0
6260 2 56.76811101262477 29.078503225550605 26.472209751285472 0 1 -1
6478 2 56.77139391433844 27.68830805660556 29.05776217565546 -1 1 1
7332 2 56.71198946718744 26.09672151279364 25.57196267388213 -2 0 1
6149 2 59.05952769626411 26.104755350018788 28.510766445157877 0 0 0
2735 1 60.19641468405413 27.065543978472597 27.564160428485952 -2 2 -1
7839 2 61.061470692408506 28.30233285283211 28.684949850362756 -2 0 -2
6676 2 61.67826283903051 26.3233534367088 26.71474869952048 0 0 0
9820 2 59.22037214904827 27.839488966269027 26.204747203087283 0 -1 0
2301 1 58.57815864253884 29.47949447840692 26.481281206407992 -2 1 -1
1028 1 65.27363693911423 27.24626807767205 27.93347633797994 0 -2 -2
5869 2 65.5377880896523 27.8448501019319 26.24693690782248 -2 2 -2
6669 2 64.15323502151708 27.925974094478427 29.322135932168244 -1 2 3
7017 2 64.3974583646472 25.648918681153468 27.273713361428207 -1 1 0
6420 2 66.35376596137041 28.840313459571213 28.33622592031689 -1 -3 2
6601 2 66.37176744800881 25.919155704045153 28.690163864226918 2 2 4
4423 2 62.354874359237016 26.028628162450648 29.48423822389412 0 1 -1
8383 2 68.70422866349135 27.336235281400487 27.272866374656015 -2 0 0
2312 1 67.94850391868248 25.844544716541563 28.13443120614495 0 0 0
1207 1 69.10632986835905 29.14530932512016 27.708294390823678 -1 2 -2
609 1 70.2463956889775 27.02655931971776 26.292125405192756 0 3 2
5668 2 70.76216589763402 28.56393296928353 26.948912608095437 -1 0 -1
7699 2 73.39932567904441 28.150979482488367 27.816074162256957 -2 1 1
1953 1 74.17752921541705 27.408847235929898 26.35220601488712 1 2 1
7474 2 73.29172492058142 25.996691774742636 25.594491927193562 1 0 0
3914 1 72.3489276060333 29.22084998882776 26.770471574524056 -1 2 1
1454 1 26.877619295302498 31.145586990507216 26.96451038416893 2 1 1
4940 2 28.226991772580753 32.27921829418649 27.079536067402948 1 1 -1
4896 2 25.936567788951134 31.69441720195097 28.424222908837265 -1 0 1
5507 2 27.077991037041745 29.987706731656964 25.613268305233287 2 -1 1
3260 1 26.22602952578072 30.116111501791288 29.41480987832338 3 3 0
4367 2 25.41692972431878 32.118868963133885 26.057100065419245 0 4 0
5430 2 29.62739640201098 29.928447122596378 26.713065212458346 2 1 -1
1708 1 30.501360097613656 29.561468973155666 28.230456784698212 2 -1 0
1985 1 33.14560322381298 29.830289109082123 28.253673832198483 1 2 1
7562 2 31.789289360008993 30.85163673174591 28.679563453780663 2 -1 0
8218 2 30.604993276669134 33.19960028818313 26.224186527068483 0 -2 1
1423 1 29.88265168557411 31.568562181547332 25.880351946528286 -2 -1 3
9508 2 33.51950877572542 33.31343503605467 27.228385391704048 0 0 0
5247 2 33.565285853093435 29.643660277135623 26.384384331287695 -3 -1 1
6425 2 34.51037044613435 31.042009474888435 28.398407726327623 1 1 -1
3070 1 36.21788101505793 30.42273126812428 28.450101667648788 0 -1 2
1952 1 34.427648500816865 32.80212994188852 28.790702772740143 0 2 2
6966 2 37.23654897817756 30.653756579576374 26.93709208289137 0 2 0
5396 2 36.41067249006802 32.419055496073604 28.678830414924157 -2 -1 3
3712 1 37.21003840145616 32.54422191623975 26.89763546862333 1 2 0
8178 2 36.15653131918671 33.44011625878149 25.79343488232294 0 0 0
982 1 40.336895255907976 32.40759382712933 26.580675491418145 0 2 -1
4469 2 40.74260275094369 30.838408621553064 27.016584040602254 3 1 1
6516 2 41.10688421625112 32.87977558655542 28.435594588235702 -3 0 1
8076 2 38.7440024693222 33.166703707744624 27.323005682094546 2 -1 1
1501 1 41.649959163970536 31.069503759919257 28.734351869867652 -1 1 0
9023 2 41.78693997938637 33.493210770289465 25.997067724025676 4 -1 3
6638 2 43.52438658916179 30.735640521976173 28.205414802032617 -3 0 0
3635 1 44.902746402324055 31.42087162405879 29.00964160237794 -1 0 -1
9343 2 44.21023737893723 29.990538382498354 25.54557668286762 3 1 -2
4363 2 45.7931102527098 32.76399147975993 28.41483334905925 0 1 1
4537 2 46.0708466017754 30.126214438063506 29.296407092101365 0 0 3
9447 2 47.9794015653286 31.498399044379003 26.978344937923865 0 1 2
1457 1 48.69194625674311 30.075003642723512 27.652099670876026 -2 -1 0
284 1 47.19939914046506 32.92267287144851 27.393506632939598 4 1 3
7460 2 53.330963450430815 31.83475127719131 27.84180206310126 0 0 1
3988 1 52.252628266523594 32.83413317337755 26.688519179178556 1 1 -2
8152 2 50.925234132376886 32.4972975025736 28.447056950504553 2 -1 -2
3110 1 52.205179979106134 31.737624466731415 29.201766162640975 -1 1 -2
4721 2 53.669151503910484 33.38963444504645 25.55631166946134 1 2 2
9660 2 51.2868934609658 31.669781900421714 25.556459372349575 -2 -1 0
4754 2 55.4159646818944 29.868329118872765 28.76902369785322 3 2 -1
3122 1 54.665348088603345 30.753288275712187 27.37258706868261 0 -1 0
7525 2 55.6252216310953 31.489232680978734 26.112848968883934 1 1 3
3979 1 55.37217716997614 33.14703984268563 25.47943681784467 -1 -1 0
8991 2 58.649122416416006 29.707597084891155 28.351054662057678 -1 4 2
1123 1 60.42984643886602 30.040294031238666 28.55549028666088 0 1 0
7493 2 60.35457640469498 30.40306348836756 26.73742285276127 0 0 1
6580 2 62.2524110376374 30.425743769481468 29.170099108285406 -1 0 0
2005 1 66.17955095846797 29.58776745757087 26.567301347583008 -3 0 1
7947 2 63.020329323916144 32.84558158754002 27.942103737945654 0 -2 -1
2660 1 63.69567741617308 31.178485719437177 28.265432434400413 -3 2 1
5217 2 64.39483170602539 30.28614804026559 26.97339209541534 2 2 4
1102 1 62.9374716255131 33.37688028642188 26.079945263333276 -1 2 1
9402 2 65.05382969319326 30.988232275653473 29.413264536360305 2 0 1
7203 2 62.51252539940745 31.669285261227397 25.562867818332116 -3 1 -1
2384 1 66.42013937596512 32.098729738028034 29.22278389383085 -1 3 2
8499 2 67.98430976650323 29.99345006459352 26.584176604391143 2 -1 0
7865 2 67.39859834632081 32.60118747350864 27.80133833011401 0 -1 0
9099 2 69.58056670294273 30.859411894585943 28.105837606713266 -4 2 -1
963 1 68.6074343706411 31.6631739910144 26.715201674295795 -1 -1 1
4990 2 70.07398978124314 32.924794927423534 26.956375450485794 1 0 -3
133 1 71.12591736035614 31.999565287704122 28.18863677107285 -2 0 -1
7456 2 72.24694611140892 30.994106017915673 27.265445842458988 0 2 -2
734 1 73.6426835957151 32.113643193464455 27.518227965085497 -2 0 2
8461 2 72.56902499120271 33.26616472324111 28.408844169092347 0 -4 1
2926 1 28.80100243905347 33.675659818377255 28.10452331145768 2 1 0
3389 1 28.31909946074206 36.193783894317775 28.871646337539293 2 0 1
7735 2 28.72585386657418 35.45932275571512 27.256775581212654 0 0 -2
6269 2 27.727609944044627 34.35335874675245 29.410062220998185 2 4 0
1370 1 28.637425857317425 36.12790400638398 25.647176779390847 0 -2 4
9621 2 26.755548773989936 36.954916539520255 28.957903666126683 0 3 1
8450 2 30.470447462937933 33.64403703632623 28.898960000745767 -1 1 1
3310 1 31.81933006034754 33.85306360950081 27.356884414188944 1 1 -3
4449 2 32.20292512470601 35.58081215969758 28.607283001308353 -1 -1 0
2190 1 32.84490038801236 36.569780223580565 27.284045127664996 0 0 1
8747 2 31.925447397371606 35.250265869859135 26.200915507537385 1 -2 -1
5139 2 29.675553867656863 37.63092801622701 25.7486990695041 3 1 1
2475 1 34.45782075563279 34.16566433583316 25.925945911913537 -3 0 1
6173 2 34.39954461048142 35.800049917739 26.59212759503725 2 0 1
2074 1 35.45116076642746 37.07444482571472 27.121159295999153 3 1 0
7147 2 37.20599010383436 36.347460066271246 26.845759438821762 0 -1 -1
7380 2 36.14409772634906 37.31084256363404 28.926056240140383 -2 1 2
3029 1 37.68980580659823 36.5284250543627 28.572082464162527 2 -1 1
2838 1 39.4716629596694 33.77208476402043 28.882658118673202 -2 1 0
7501 2 40.526177826735115 35.34976750737605 28.051566088133825 0 0 2
594 1 40.60292778471251 37.11481105600019 28.203721784065227 1 0 -1
9096 2 38.00599997070798 34.95471795154403 29.289057782391417 3 0 -2
7334 2 38.99628420427619 37.64089527578027 28.90825346095865 -2 0 -1
8651 2 41.74317128607292 37.65201714006001 29.3430193680815 -1 0 -1
2184 1 42.00155811917157 34.36316151154443 27.645942609362226 -1 1 1
5225 2 43.61044570533523 34.61935307671715 28.225819287461334 -1 0 -2
8632 2 42.978366694323995 36.933386612642735 27.049552936513013 1 -1 3
3557 1 44.57121601754244 36.151112085502184 27.567471971371162 2 1 1
4398 2 45.30923279781966 36.53935074771867 25.816773525083928 -1 -3 1
18 1 44.95940037931226 34.01148323305901 29.389940786672526 0 1 1
4674 2 44.817626216139 37.65668069847999 28.65000610319172 -2 0 -1
6364 2 46.276502781408645 33.63984529418509 25.82626007711614 -2 -1 0
5644 2 46.00774588175878 35.285329176113 28.50529682825014 -1 0 1
8139 2 48.42820320700078 34.13362881864504 28.21832362021779 0 2 2
2743 1 47.811923612373555 35.73923219243177 28.677998026488314 0 -1 0
5959 2 47.68176866072254 37.251808173540596 27.81319957549158 0 2 0
3345 1 48.43972386538101 37.26677159661566 26.264222796852337 -1 0 2
4255 2 48.096559644138516 35.5807826149254 25.718208749411982 2 0 0
4088 2 50.070293456024075 36.18560458618051 28.568149567781532 0 1 1
823 1 50.2304411611359 34.21731535299821 28.507419200637827 -2 1 2
9942 2 51.67431390331879 34.47474926299701 27.207886355328707 1 2 -1
851 1 51.85044136425165 36.04568220519938 26.462639805567203 3 -1 -2
8943 2 52.15053515796342 37.55202414042276 27.392810345896137 -3 -1 1
2119 1 50.92691225923454 37.64233256454839 28.71877524884614 -1 -1 0
4553 2 50.34951271927926 36.5821903197392 25.53067056628399 0 1 2
8370 2 56.22272337067673 34.484909036448435 26.42710271116864 -2 2 1
9811 2 54.52547379261689 35.82574420499131 28.76874361196585 -2 0 1
2542 1 55.996794878495 35.39701490991229 27.908320263001524 -1 2 0
4711 2 56.79225996845682 37.07858968905078 27.239688597599045 0 1 -3
9673 2 57.34567472622223 34.68179280503192 28.933159885867376 0 1 3
1094 1 57.64052766109691 35.32613473917142 25.487686439924353 1 -2 0
8290 2 58.93068640203464 35.332284122282154 26.61558972420007 0 2 0
355 1 60.963531768366295 35.455949601827044 26.411943789258956 0 -3 2
3613 1 58.98530590629471 35.37524640188642 28.355405925250672 -3 1 0
8349 2 61.4335309575024 37.12202660990235 27.23190615003841 0 1 -1
4902 2 60.72549487979603 34.797501703724 28.25511761571143 1 1 -3
6746 2 59.05153665108972 37.03679186436951 29.06435356627193 2 0 0
848 1 62.06454857930939 33.9092644591754 29.09961609093413 0 0 1
9550 2 61.1589753965758 33.85917821220345 25.576713704129872 0 -1 -1
846 1 62.6331268501621 36.73187881231179 28.55161481151755 2 0 1
7359 2 63.05148290686586 35.15109256998562 26.294278693360663 0 0 1
886 1 65.62749785854797 36.92897872872503 28.495074363813114 -1 -1 1
7953 2 64.13967640554624 37.11749015062139 27.69356556103658 -1 -1 1
733 1 64.05926697122366 36.58178849793049 25.790615947701735 1 1 -3
9427 2 65.76506934783049 37.05063660990669 25.599049839477175 -2 0 -1
4542 2 66.46455952148195 35.623185816195615 27.684574060231146 -1 0 1
1193 1 67.63155763547593 34.358979741997246 28.07678268655501 -1 -1 2
5213 2 68.53981901864195 34.9552785907363 26.676331287478117 0 0 0
3359 1 67.10754319765634 35.92141780998683 26.016471096911225 1 0 2
5889 2 69.49840592557106 37.04854301156167 28.401157661704797 -2 2 -2
3290 1 70.20986755945573 34.46680060536012 26.113747020315284 0 -1 2
4607 2 68.00730905889714 37.57039037345025 26.089402507580733 -1 1 1
4184 2 71.36661889790598 35.88091841011065 26.398973798903516 -1 4 3
2292 1 71.26074199653105 36.83752108134971 27.876677294216456 -1 0 1
4106 2 73.11492388947222 36.91739986020251 28.052752354317473 -1 0 1
6194 2 71.34889508472853 35.53030946791915 29.449656776237614 -1 0 1
2197 1 74.1870781366362 37.06660518780122 29.453824962648746 0 1 -1
8848 2 28.97067632743974 38.09942116287251 28.524977774298847 0 1 0
542 1 26.979892989990052 38.77815843701195 28.504191848350185 -1 2 2
9197 2 26.768268610219028 39.24081503284408 26.67103322110606 -1 3 -1
1943 1 27.52343911764054 40.79249243070542 25.914427878517124 1 0 0
9709 2 29.164831709139673 40.359724918614376 26.535383461482276 1 1 0
5475 2 27.4372383159318 40.22502097136817 29.41267329780251 0 0 1
3431 1 29.852430913661394 38.861873458807345 27.05174833786512 -1 1 1
9682 2 32.14518272962707 38.01593070878942 26.239967190488265 0 -2 3
6345 2 31.242781914799377 39.51211762622874 28.04094382148074 1 -1 -1
1828 1 32.86459842192008 39.59179551290363 27.21500831695899 1 0 1
746 1 30.89796781268271 40.85140738711018 29.198957318996293 -4 0 0
5097 2 33.708221820253605 41.129929823086115 27.85737073037729 3 1 1
4655 2 33.971790858591696 39.93691519769088 25.793190068878086 2 4 3
8073 2 33.88187922280531 37.99067103405935 28.03558496346175 -2 1 1
3318 1 34.95695586644545 41.33297370489266 26.440307619913106 2 0 -1
9821 2 36.46371009223097 41.419035175519284 27.37155950489622 -1 1 0
9444 2 35.737037617348534 37.913186992003205 25.57414519906401 0 0 0
9471 2 40.47254585427051 37.897184770907856 26.61494670358204 1 0 -2
3541 1 37.70624686515926 41.171191243653695 26.05147679875872 -1 2 -1
5122 2 38.57238696280497 39.83028213833537 27.02962217738975 1 0 -1
2824 1 38.92712536147313 39.48095141453642 28.82897172962158 -1 0 4
3769 1 39.580762133218286 39.164569950675634 25.65270538510071 2 1 1
301 1 42.096453940589385 37.8457607287703 25.75481325946665 -3 0 -2
6495 2 42.877204637366404 39.49941584923514 27.322918083356477 -1 3 -1
2028 1 43.216183727338475 38.374522355035054 28.587340118181487 1 1 0
725 1 43.19657315476283 41.13311855989302 28.17092614431593 -1 1 0
5432 2 44.871216885026804 41.650939184449584 28.040848184170933 0 -1 -2
3402 1 42.83241502152326 40.30001672779865 25.612126447386583 1 -1 2
3659 1 45.612394019422084 38.37828241250916 25.401141980982473 1 2 0
9920 2 45.931101846436206 39.198032719440505 26.93040415629944 -1 1 3
1360 1 46.22646426575456 41.016493857189445 26.8235916481131 2 0 -2
732 1 46.48966804162794 38.53247409260091 28.46710202356761 1 0 0
7329 2 47.70527429889454 40.44604400230147 28.109363624146575 0 1 0
3732 1 49.39023457002929 40.27009755932906 27.29441195623726 1 2 2
7637 2 49.51685756340452 38.75443902633272 26.34294585890488 -3 3 -2
5850 2 48.84764216659008 41.10476073823092 25.609610259159265 0 2 0
6281 2 50.24995787583074 39.341712677257064 28.665390548564442 0 1 -4
2773 1 53.42466441343856 38.864994040282184 26.894704255598892 0 0 0
8762 2 52.02025207690427 39.742916985669446 26.075104614922378 2 -3 0
2559 1 50.62309862889376 40.868621163558245 29.458040532063507 1 -1 0
8527 2 53.98474240619858 39.35210435513389 28.49663722731186 0 0 -1
4432 2 53.928522192389295 41.72416571709316 25.417088890464537 -1 3 0
2099 1 57.12634469396133 41.103758658570555 26.424224821665657 -2 0 -2
7042 2 57.4928744285517 39.320033909277534 26.534171914435866 -4 2 0
3538 1 55.6053938761284 40.35993784405202 29.048276942519685 0 1 1
9503 2 55.632768082868026 41.20941835435557 27.441408835330947 -5 -1 1
5863 2 54.516325949617624 38.19656236849731 25.67338889241003 1 0 0
1546 1 56.45543382177614 38.05944631783749 25.633495174694424 -2 -1 2
454 1 57.84974948713858 38.34424708470612 28.140375191746656 -2 1 1
5146 2 57.000756762955945 39.33219554892021 29.34922503151314 -2 0 0
3296 1 60.10238493052948 40.72089422535955 27.468204595816868 0 0 2
6057 2 60.837875238594464 39.755582036535635 26.184030307252993 -1 1 -2
5187 2 59.42245872732538 39.48688446503773 28.631525644173834 -1 1 1
3135 1 61.46064700926375 38.07510318349554 25.733129379071446 1 2 1
8878 2 58.52441586247048 41.76861346025526 27.27987278444146 1 1 -1
7417 2 66.05269599928785 40.84165169705471 28.126604667919864 2 -2 0
3289 1 66.09979411976236 39.65006419739478 29.308225472824898 0 -2 2
6046 2 63.19942120668391 38.14157427337018 25.4642459508215 1 3 -3
6215 2 66.8777595328603 38.312306453185144 28.59518607385688 1 0 2
3413 1 68.427747205436 38.18604480807818 27.706964039261095 2 -1 2
6291 2 69.21961846526806 39.7471499231586 27.303437389102008 0 -1 1
1431 1 68.8704665059493 40.48401301066976 25.718223197703526 1 1 1
8340 2 70.48379813256523 41.07899507035345 25.707427646264783 0 0 0
1811 1 74.27906332554052 41.54289652495846 26.773979930496406 2 0 -2
5694 2 74.35289416478417 38.82554374599529 28.787941861742166 1 3 1
973 1 71.07240518172607 40.31354422784989 27.192968633750127 -2 0 1
8631 2 71.50872397064195 38.569279013776864 27.45029234017365 -1 1 1
1061 1 73.39082168957712 38.54290299383246 27.29622370955407 -1 0 0
6100 2 72.97484376086919 40.45801518546368 27.02013059984465 2 1 0
9042 2 73.83165191231697 37.884267894735416 25.62879742084919 2 2 1
9976 2 26.78572033977128 41.840534477037394 27.495598287887947 -1 1 1
617 1 27.900855493490855 42.01020695333429 29.002231719926023 1 0 0
2436 1 26.180768931490704 43.75023682905334 27.485905892749727 -2 -1 0
8471 2 27.579427841378358 43.76742589052388 28.81012666521882 2 0 2
4794 2 26.644932932809095 44.36799566970629 25.852752605124195 -1 0 -1
3581 1 28.959445852544505 44.84366044926696 28.555194608509897 3 -1 3
4552 2 25.508438583349914 45.16381517315769 28.333908243906937 2 1 0
6622 2 29.674844774652836 41.99466155732105 28.602299981196655 -1 2 -1
6679 2 29.52474206309873 44.07783190825347 26.99890092159025 -1 2 1
3109 1 29.824514904082445 42.07123748644982 26.65180052654489 2 -3 2
6427 2 31.52142880270825 42.02652929455158 26.365176935529053 1 -3 0
1508 1 32.85331064561495 43.115426977192044 26.820077365093656 1 1 -1
4114 2 32.2749711556079 44.810028505401945 26.41336084408792 0 0 -2
2687 1 30.562940260365007 45.05412641944089 26.002055165608216 2 2 2
7156 2 32.99619917196057 43.408445935732644 28.72692088322884 -1 -2 2
3163 1 32.49851384703321 44.96669366646342 29.290709779884818 1 -1 1
7541 2 30.56026276955841 45.06389058553887 29.378336118718366 3 -2 0
3552 1 36.95579020763056 41.83139474177165 28.965889589001733 0 -1 0
5389 2 34.37972480553283 42.935019109009325 25.879972696443836 -1 0 1
7142 2 38.1595169394549 42.938974498937824 26.00343436600896 -3 1 0
2432 1 38.94857063090907 43.851639050183834 27.353573891124036 2 1 0
6620 2 40.78654503618225 43.740556529232165 27.459359719591895 1 1 3
5676 2 38.20027083485045 43.174054913479225 28.830308012837687 1 1 2
7778 2 38.558205857111005 45.22478808477823 26.374109743169786 2 -3 1
4076 2 42.77445335074698 41.90813986374131 26.47779640846457 2 2 1
684 1 41.899104407673306 43.868099823888485 28.964325360866127 1 0 3
3034 1 42.23187324825782 43.57934774522679 26.407371992080403 0 3 1
4864 2 43.14845738858216 44.45047668904786 27.688333686525795 2 2 -3
1014 1 43.92229813073836 45.56736080009206 28.90083455000345 1 -1 2
9060 2 45.60862890028706 44.64807725307801 29.23821899547642 0 0 0
6059 2 42.21711417020303 42.119633302904944 29.345494351941213 1 0 0
2597 1 45.8630891389017 42.98679548533702 28.585449354487775 0 2 1
6749 2 46.89559262132627 42.7406980505408 27.179573980574244 -1 2 0
1478 1 47.785826429988774 43.999449697378054 26.439336229643853 0 0 -1
9439 2 49.605480003876636 44.46973754083938 26.62930550278014 1 1 0
9893 2 48.23791261435995 45.32214764436092 29.165819627343424 3 0 1
4758 2 46.77128514981361 45.416828072923806 26.751407590416864 2 -2 -2
5931 2 50.332112210047 41.82770892529422 28.120718511682274 -1 1 -2
1032 1 50.93152060712961 43.2687607200789 27.25087399554539 0 1 1
9212 2 51.16117501682555 44.376355183041724 28.775945900650477 -1 0 2
8394 2 52.76213337569015 43.15072687639055 27.495866127105838 0 -1 0
3003 1 53.01956908824695 44.313661147175395 29.049664692037577 0 0 1
5730 2 51.023635124205484 42.44585910516106 25.450815109936364 0 0 0
2319 1 50.27505206025123 45.88943054877576 25.86908971720124 2 1 -1
2201 1 54.45606704031815 42.702318221336164 27.08310096935619 0 0 1
9669 2 54.734538075097355 43.54185823187164 28.767380944894473 -1 -1 0
9137 2 55.297381879281716 43.7806703900371 25.98051106725674 -1 -3 2
2600 1 56.07976713349214 45.31889386909073 26.263909324588198 2 0 -1
8006 2 57.674805327880506 44.05127122870016 28.818436833694147 1 0 1
7202 2 57.87166171407701 45.404271133918726 26.053040954879894 2 -4 0
1598 1 58.19700454137711 45.53655274401696 27.92044445226313 2 2 1
9614 2 60.95271291268874 42.151677838991986 27.947770900657847 -1 1 2
5037 2 59.88753279397935 44.50908255557204 27.82018320634831 1 0 1
3035 1 59.18293496255207 42.96774431346015 28.496296341098997 -1 3 -1
3356 1 62.2047742206761 43.28016192506181 27.623446913791522 0 0 -1
8050 2 62.36074419792564 44.75566716489531 28.65436075243305 -2 0 2
8865 2 62.579634363647244 43.721019144992475 25.99349044133347 -1 0 -2
8287 2 65.04843018780265 42.28392894923927 25.71769001927194 0 -1 0
409 1 65.23258014821656 42.15974069147953 27.4257737537159 0 -1 1
6565 2 63.677178544616794 42.586262743188556 28.402779286130055 -1 -3 1
2931 1 65.92210373349897 45.19848248696188 27.307491393407048 -1 0 0
2948 1 62.97286700517685 45.43162246354565 25.799557764319356 1 1 2
7085 2 66.19853924988494 43.6869049652619 28.11772323833955 0 0 1
9118 2 64.26925722913404 45.780064264774424 27.139360437227822 -2 0 1
6268 2 66.77452288073853 45.032112852896816 25.717751568827506 -1 1 0
7192 2 68.71074276168191 43.133709336586946 27.12776329045211 -1 0 -1
3672 1 67.94241833432935 43.45895371864735 28.679903261012385 -1 -1 1
1867 1 70.15889409381833 45.64124194265027 28.448782835379294 -1 0 0
607 1 67.80097170694245 43.43785196764494 25.646069248147707 0 -1 0
7692 2 69.16809823556633 44.58100342222181 29.38229652313426 2 -1 2
7788 2 71.23035152715842 41.81056818628714 28.374569317603424 1 -1 -1
2106 1 71.83649746815915 43.21101025928934 27.437260899156563 -1 1 0
6430 2 73.63427845383865 43.06487747426605 27.41208584876398 0 2 1
6445 2 71.74682940892892 44.7821757607237 28.312957276609197 -1 1 3
7760 2 71.45501350315114 43.57648069364316 25.75555477779882 -1 -1 -1
2710 1 73.30295060222106 44.703785162617805 29.26214494075653 0 0 1
7945 2 28.303806879981032 46.625925693190794 28.346177781396474 1 0 -1
769 1 26.399619870489243 46.74117786438441 28.5096419868496 3 1 0
5188 2 26.050008764056493 47.08117522929565 26.64590452410171 0 -1 1
6924 2 28.766273792089986 48.849441445121144 26.049551521474275 -2 -2 2
7656 2 25.887636406149557 49.69860303359374 25.876742423602526 0 1 0
2833 1 29.30284093308253 47.7773850089376 27.36480895376833 1 1 1
5354 2 27.749770350175282 49.94835503683048 28.340507232197364 1 3 -1
9588 2 30.62472570702124 46.735066392324235 26.57377656055368 4 -3 1
9380 2 32.617222890373256 48.47596687947805 26.823375327300674 0 -1 0
4931 2 30.287128568366672 48.87242432299048 28.338060327538862 1 -3 2
619 1 32.727432686374684 46.53899832104345 26.716981754598574 1 1 1
3929 1 31.59876630525556 49.76815424074577 27.49331678007585 1 1 0
8269 2 33.53218894529101 46.26435029180172 28.41566094618932 3 2 1
3428 1 36.10770710102068 48.96990117226659 26.672840197988045 0 -1 2
7217 2 35.606459437853 48.74556661007371 28.446186766435545 3 2 1
6836 2 36.62225967413799 47.277343800212606 25.958527950999933 1 0 1
3840 1 37.21849398294181 49.566740184710454 29.16160210730911 -2 0 1
2214 1 34.3779901463656 47.720163631822956 29.18704614442369 0 1 -2
6521 2 37.44986595190611 49.83806749271301 27.350687050794143 1 2 0
8626 2 38.208885670277446 47.20318845346752 28.414375258999115 0 1 2
120 1 38.22530443158155 46.94587719228911 26.721565351643722 -1 1 0
8578 2 39.23489638979523 48.1072632034969 25.867323231257515 1 1 1
2859 1 39.03648096970022 49.928690349242714 26.39971262071582 3 0 1
2132 1 45.354699517010914 46.223970246454414 25.976602703291544 1 0 1
6637 2 44.89446256966721 46.80879733128687 27.76760615216847 3 -1 1
1797 1 43.44921962549531 48.31217201045019 28.422626834931073 1 1 1
9068 2 43.07807500197612 48.74574989966436 26.698712969206895 -2 1 -2
8407 2 42.608792520802545 46.94312293221623 29.204285691155135 4 2 1
2509 1 46.78956621254552 46.42647228721824 28.256471286468106 0 0 -1
7169 2 48.03801764248789 47.56096822781758 27.520608737775586 -1 -1 0
5939 2 48.38431064723277 49.56536353041023 25.89395467402062 -2 -1 0
2313 1 49.75218123216629 47.819384339229515 28.191101532817648 -1 0 -1
2131 1 47.93655799087283 47.85550935281758 25.725556389502824 -2 2 3
4710 2 49.926637035121374 49.59856925514032 28.21221983688616 2 2 2
5608 2 53.49329092645947 46.09508712779363 28.534621920908748 0 0 2
7768 2 50.87650172344442 47.10521458842704 27.116788996700933 0 1 1
3668 1 52.66820452517858 47.35081617900592 27.54965186954539 -1 0 -1
4229 2 52.63193895892421 49.072376947977716 28.320655637972433 1 0 -4
7237 2 53.740962777396916 48.14996964815736 26.30492943917777 2 -1 1
3331 1 54.04412417663327 49.81749240387498 27.12657705968094 2 0 1
5243 2 56.372681031097706 46.16258078583208 27.789564755237816 3 0 1
2909 1 55.216924048852206 46.58719844297761 29.100872458191425 -1 0 0
9960 2 57.54871883329939 49.23219861704758 28.017345573688065 -1 3 -1
3821 1 57.34175074244963 49.51133895521398 26.266418390845296 -2 1 0
9981 2 55.5528202493327 49.68891263762502 26.015400544632158 -2 -2 1
1398 1 56.359581486742215 49.78968052132409 29.358318547808366 3 1 0
510 1 60.90020453831973 45.97872811379605 28.117884609153435 0 -1 0
6575 2 61.57548110383057 46.441343419317484 26.502050351110725 0 1 1
7908 2 59.25038424763042 46.895592794106165 28.524928920190852 -1 -2 2
3438 1 58.77505133822049 48.47809280313722 29.09253568813657 -1 1 0
6379 2 61.92795377289545 47.151205648247085 29.00974383154386 4 -3 3
168 1 63.48691120184307 46.24903603596774 28.86630137746471 -1 -2 -1
5110 2 64.45383513839606 47.814466870230035 29.045002069621578 2 0 3
3685 1 66.08035735897636 48.07201357008442 28.275252940561543 0 0 -3
782 1 66.21204762571345 49.381121876686706 25.5111282595013 -1 0 2
8081 2 66.38697158697273 47.96592597433184 26.452449154260318 -2 2 -1
4631 2 69.62897008438298 45.928232520677 26.801125921540688 -2 2 -1
5726 2 67.00494711132173 46.36358146391482 28.036578339154886 0 0 -1
2145 1 68.0569117748602 46.94794255401243 26.524830395596382 2 1 1
6552 2 68.83353935600687 48.54000590864407 27.41448265644747 1 1 -1
650 1 68.92090220385143 48.67420401643716 29.204598473187083 -1 -2 0
104 1 69.22295015961849 49.75396001911524 26.179273938004577 0 2 0
5508 2 70.16283449827009 47.21391770584529 29.330246156725543 -1 0 3
5041 2 74.31299257350112 48.20173666930493 28.642124456436157 -2 0 1
1768 1 73.9981250999948 48.53185821935305 26.840610187339777 2 1 -1
2565 1 71.82273249317693 49.74114777281763 25.68160052033116 0 1 1
6237 2 72.74531940638497 48.106146834676395 25.58368071225693 -5 3 0
4930 2 72.58019480140054 49.862509984933766 27.312135018169485 2 0 1
265 1 27.473850312818804 50.29605574340187 26.554174758347166 -1 0 1
8879 2 26.855534340425706 52.184382904958056 27.550846406738415 2 3 2
3777 1 26.076151193734695 53.582611014339506 26.735376271375486 0 3 0
2448 1 27.07254225011051 51.517870962558575 29.163137967278953 2 1 1
6862 2 32.237474026288254 50.8653455877845 28.68587760754183 1 2 2
507 1 32.11782938197389 52.621919234754365 28.60875925597543 3 -1 -1
8514 2 32.529614537164214 52.79827830622134 26.800690629870214 3 0 0