40
Lattice="8.413 0.0 0.0 0.0 8.068 0.0 0.0 0.0 19.41349599" Properties=species:S:1:pos:R:3:forces:R:3 step=0 confid=0 wdir=cand0 energy=-280.67439436 pbc="T T T"
Al       0.53625000       4.87760000       4.09791993      -0.09312236      -0.29472595      -1.01301873
Al       4.88201998       6.94692002       2.95451006      -0.41602050      -0.47837650      -0.39680333
O        3.41568002       7.25952000       1.58661999      -0.15598276       0.49456842       0.73089080
O        7.71471999       4.97648004       0.00000000      -0.67915457      -0.97213520      -1.44669811
O        3.48393999       6.67590000       4.11636004      -0.47597276       0.53843123       0.93129643
O        7.54520999       5.03981997       3.07456001      -0.09869186       0.27696660      -0.15859045
Al       4.83747996       3.15149997       0.15642793      -0.39449995       0.31839271       3.17806419
Al       0.66462700       1.12006003       1.55868999       0.25251058      -0.74012827      -1.67735439
O        7.67859003       0.85432601       2.77036004      -0.70390583       0.00605781       0.62396292
O        3.44063996       3.29187002       4.77899002      -0.73671819       0.20453558      -0.26616481
O        7.62218002       1.20653003       0.21229493       1.12629337       1.60135600      -0.36352980
O        3.49981002       2.93662001       1.43578004       0.08941421       0.39070451      -0.54278894
Al       7.78202004       3.15149997       0.15642793       0.41893588       0.31010953       3.27398010
Al       3.54186997       1.12006003       1.55868999      -0.34696843      -0.76773819      -1.72974249
O        4.94610997       0.85706501       2.76811992      -0.13155672      -0.08030402       0.07130258
O        0.67130297       3.27463000       4.72603991      -0.96096825       0.62791329       0.61031161
O        4.99731998       1.20653003       0.21229493      -1.15441063       1.59582769      -0.34076596
O        0.70669200       2.93662001       1.43578004      -0.13249985       0.37729392      -0.63378357
Al       3.55156999       4.87050000       4.03543002      -0.17146450      -0.30626644      -0.31258664
Al       7.62835003       6.91522996       2.92738999       1.04420280      -0.31263229       0.29530090
O        0.79082200       7.25952000       1.58661999      -0.06061723       0.31776446       0.71670912
O        4.90478001       4.97648004       0.00000000       0.69164631      -1.00024572      -1.51551670
O        0.64871002       6.64704996       4.13971991       0.11184496       1.13090856       0.60803154
O        4.89879004       5.05548996       2.95929005       0.74233014      -0.07397995      -0.02961331
Al       6.27348997       1.09916004       3.97786998       0.29097982      -0.23442301       1.05923934
Al       6.30975000       1.01569004       1.50841000       0.09447053       0.24882555      -3.65866806
Al       6.30975000       6.03280997       0.05586699      -0.03450085      -2.40928633       1.94755889
O        6.30975000       7.05828004       1.54192993      -0.14545371       0.17624511      -0.77899207
O        6.27346002       7.33640998       4.16299009      -0.02578786       0.58123722      -0.08346366
Al       2.10325000       7.07311999       0.10056094       0.02995390      -1.51784902       4.05720191
Al       2.05809003       7.13445003       3.06351994       0.01046280      -0.37473017      -0.42493636
Al       2.01842004       2.39945999       4.30750998       1.66331061      -0.06762975      -0.06168978
O        2.07524001       1.07912001       3.11567993       0.02188948      -0.41070974      -0.57151507
O        2.10325000       0.91648898       0.17318799      -0.00051491      -1.51458261       0.54410678
Al       2.10325000       4.02546002       1.46929996      -0.11729628       1.56340504      -3.03309504
O        2.10325000       5.18572999       0.05028037       0.01978753       1.59729263       0.14242318
O        2.02250001       4.98490997       2.93324995       0.34423416      -0.67487195       1.01634385
Al       6.23139998       3.88098998       3.03039004      -0.13693915       1.17750283      -0.33119031
O        6.18472996       2.77127998       4.29477006       0.27560805      -1.06645819       1.01378686
O        6.30975000       3.01696002       1.46929996      -0.05482798      -0.23826539      -1.45000340
40
Lattice="8.413 0.0 0.0 0.0 8.068 0.0 0.0 0.0 19.41349599" Properties=species:S:1:pos:R:3:forces:R:3 step=0 confid=0 wdir=cand1 energy=-280.20364792 pbc="T T T"
Al       0.52980304       4.81619002       4.17692005       1.45739975       0.22292046       0.66608672
Al       4.85895002       6.83060003       2.95555004       0.95734544       0.86290886      -0.39480446
O        3.41568002       7.25952000       1.58661999      -0.10869240      -0.37865524       1.56807305
O        7.71471999       4.97648004       0.00000000      -0.68713224      -0.98432981      -1.38983907
O        3.46600002       6.59814998       4.23366997       0.12776745       0.62578556      -0.57248418
O        7.60534998       4.98762001       3.19556996      -0.24914472       1.26703813      -1.55890911
Al       4.83747996       3.15149997       0.15642793      -0.50830799       0.13576430       3.25540709
Al       0.66462700       1.12006003       1.55868999       0.53250290      -0.43584978      -1.63608950
O        7.69781003       0.91780398       2.77733007      -0.37948054      -1.01127427       0.18746433
O        3.46192998       3.35544998       5.01183006       1.10040273      -0.45661276       1.00708096
O        7.62218002       1.20653003       0.21229493       1.10294638       1.56347555      -0.38079540
O        3.49981002       2.93662001       1.43578004       0.48984712       0.53776002      -0.99464981
Al       7.78202004       3.15149997       0.15642793       0.53775837       0.17565689       3.25193252
Al       3.54186997       1.12006003       1.55868999      -0.37056012      -0.42581036      -1.63963716
O        4.93493001       0.84766200       2.74186006       0.30694116      -0.58333111       0.77023122
O        0.68785899       3.30723997       4.98747000      -0.38607378      -0.11611561       0.30550863
O        4.99731998       1.20653003       0.21229493      -1.11303878       1.64224036      -0.50959168
O        0.70669200       2.93662001       1.43578004      -0.44933444       0.52368411      -1.07785661
Al       3.70942000       4.82046001       4.21396003      -0.87906165      -0.05393241      -0.16162512
Al       7.75225997       6.93619998       2.94775008      -0.00719925      -0.74565558      -0.19333691
O        0.79082200       7.25952000       1.58661999       0.00680201       0.00287306       1.29165100
O        4.90478001       4.97648004       0.00000000       0.67081597      -0.94789113      -1.33632624
O        0.73748198       6.65755999       4.19739993       0.23582679      -0.03278079      -0.48273850
O        5.09578001       5.02820003       3.22984992      -0.64237734       0.26183769      -0.99623266
Al       6.31608003       0.99217803       3.96221008      -0.30595800       0.15406299       1.08435546
Al       6.30975000       1.01569004       1.50841000      -0.04869423       0.09186113      -3.50215165
Al       6.30975000       6.03280997       0.05586699       0.05966780      -2.21263410       1.96036903
O        6.30975000       7.05828004       1.54192993       0.10926308      -0.22350006      -0.62389114
O        6.32592004       7.28211000       4.11787992      -0.15508998       0.44877601       0.10665677
Al       2.10325000       7.07311999       0.10056094      -0.11184282      -1.33172455       4.09970403
Al       2.14318996       7.24858003       3.19701005      -0.76360691       0.55736955      -0.72076868
Al       2.11144998       2.67403000       4.28226991      -0.71710853      -1.03470802      -0.89072146
O        2.09741996       1.12925997       3.02712003       0.24639964       0.23879760       0.76329910
O        2.10325000       0.91648898       0.17318799       0.05153244      -1.76131743       0.37140862
Al       2.10325000       4.02546002       1.46929996      -0.05809688       1.00115726      -2.71402513
O        2.10325000       5.18572999       0.05028037       0.02135560       1.60484999       0.58042826
O        2.10564998       4.47229999       3.16336996       0.20099049       0.57591039       0.55091403
Al       6.34783001       3.82399996       3.03748004      -0.27257480      -0.02414575       0.73357802
O        6.25528003       2.63864997       4.25362995       0.00818154       0.31369458       0.97017508
O        6.30975000       3.01696002       1.46929996      -0.01037128      -0.04815573      -1.74784944
40
Lattice="8.413 0.0 0.0 0.0 8.068 0.0 0.0 0.0 19.41349599" Properties=species:S:1:pos:R:3:forces:R:3 step=0 confid=0 wdir=cand2 energy=-280.39019031 pbc="T T T"
Al       0.56644401       4.87464002       4.15716002      -0.39625078      -0.90890894       0.02930219
Al       4.92631998       6.90925996       2.99081000      -0.59192468      -0.00109248      -0.80438562
O        3.41568002       7.25952000       1.58661999      -0.08634751       0.22070367       1.67819057
O        7.71471999       4.97648004       0.00000000      -0.65398154      -0.98926543      -1.42840526
O        3.47875001       6.69120000       4.25311006      -0.02083843       0.36582867       0.12991218
O        7.56654998       5.02095997       3.17456009       0.43014909       0.88389648      -0.69612739
Al       4.83747996       3.15149997       0.15642793      -0.32723207       0.20755080       3.23663007
Al       0.66462700       1.12006003       1.55868999       0.14405418      -0.78871399      -1.56548981
O        7.68549003       0.79122101       2.75622993      -0.30794636       0.42633986       0.82166630
O        3.43307003       3.37967003       5.09437003       0.05688059      -0.15604366      -0.18365789
O        7.62218002       1.20653003       0.21229493       1.15209539       1.65433236      -0.41661422
O        3.49981002       2.93662001       1.43578004       0.26194537       0.46968984      -0.65000195
Al       7.78202004       3.15149997       0.15642793       0.36731375       0.24451619       3.31070966
Al       3.54186997       1.12006003       1.55868999      -0.07777196      -0.84675425      -1.59211233
O        4.97673000       0.83821300       2.75833998      -0.59663698      -0.03853966       0.56485262
O        0.68050696       3.39871003       4.99150005      -0.28208960      -0.81449997       0.59682593
O        4.99731998       1.20653003       0.21229493      -1.19996712       1.63116387      -0.41158385
O        0.70669200       2.93662001       1.43578004      -0.25900620       0.43419958      -0.77263773
Al       3.60310004       4.89175999       4.26494006      -0.18555997      -0.72168908      -0.45545283
Al       7.73477002       6.89214999       2.98800009      -0.47350986       0.21641354      -1.15410463
O        0.79082200       7.25952000       1.58661999       0.28683522      -0.00634155       1.49550511
O        4.90478001       4.97648004       0.00000000       0.63919343      -1.01211195      -1.37762565
O        0.67258898       6.63469003       4.21521996       0.66680669       1.15462743       0.36287572
O        5.00226001       5.06238996       3.23579007      -0.63922904       0.31353809      -0.47366358
Al       6.30193003       1.02524997       4.01241008       0.34761075       0.88140963       0.16048611
Al       6.30975000       1.01569004       1.50841000       0.27495077       0.00095527      -3.38256480
Al       6.30975000       6.03280997       0.05586699       0.01760459      -2.20863488       2.10382540
O        6.30975000       7.05828004       1.54192993      -0.05711512      -0.42104370      -0.57438138
O        6.31104998       7.34610997       4.13236006       0.05521179      -0.64299508       0.92242929
Al       2.10325000       7.07311999       0.10056094      -0.00263343      -1.43698204       4.47707060
Al       2.09119998       7.21947997       3.28356008      -0.04875653       1.09417210      -1.90121220
Al       2.05613998       2.55533996       4.41824009       0.35695895       0.29162624      -0.22257009
O        2.07690999       1.15916998       3.18132007       0.14477763      -0.44029193       0.08021565
O        2.10325000       0.91648898       0.17318799       0.00551528      -1.50073952       0.59583360
Al       2.10325000       4.02546002       1.46929996      -0.03956436       1.51151584      -1.84606479
O        2.10325000       5.18572999       0.05028037       0.01281929       1.48085928       0.51130082
O        2.06347998       4.63788004       3.17858005       0.97280726       0.20012540      -0.77369460
Al       6.26475004       3.88679999       3.09980008       0.24641759      -0.54239559      -0.51484299
O        6.30289004       2.69052003       4.30223009      -0.08628191      -0.50504205       0.83693277
O        6.30975000       3.01696002       1.46929996      -0.10730415       0.29862163      -0.71737097
40
Lattice="8.413 0.0 0.0 0.0 8.068 0.0 0.0 0.0 19.41349599" Properties=species:S:1:pos:R:3:forces:R:3 step=0 confid=0 wdir=cand3 energy=-280.31873872 pbc="T T T"
Al       0.58609299       4.87712004       4.08849002      -0.04467217      -0.19874093       0.72797863
Al       4.86793999       7.02490998       2.96035993      -0.31289740      -1.18701326      -0.12321795
O        3.41568002       7.25952000       1.58661999      -0.34261495       0.63219656       0.83020293
O        7.71471999       4.97648004       0.00000000      -0.65412987      -0.89436738      -1.53713621
O        3.37610998       6.74502001       4.11847999       0.39367094      -0.21177485       0.31692593
O        7.70009004       5.01585002       2.98330008      -1.42185907       0.65076484       0.02261455
Al       4.83747996       3.15149997       0.15642793      -0.37877157       0.35048072       3.47454719
Al       0.66462700       1.12006003       1.55868999      -0.07633446       0.25298022      -1.84067416
O        7.65211002       0.87022900       2.83358009       0.03420508      -0.07019374      -0.00293536
O        3.53252002       3.38790996       4.97407003      -0.33128076      -0.34490932      -0.11871313
O        7.62218002       1.20653003       0.21229493       1.17601467       1.38097631      -0.18097835
O        3.49981002       2.93662001       1.43578004       0.43592650       0.49731682      -1.02859861
Al       7.78202004       3.15149997       0.15642793       0.39399205       0.35492354       3.51511955
Al       3.54186997       1.12006003       1.55868999      -0.12628730      -0.17465807      -1.79503616
O        4.95927000       0.85586401       2.80998998       0.05959115       0.27787529       0.49680748
O        0.69354198       3.38415003       5.00572005       0.46429592      -0.37622151      -0.19299585
O        4.99731998       1.20653003       0.21229493      -1.15158945       1.43177153      -0.22463529
O        0.70669200       2.93662001       1.43578004      -0.41363422       0.38411926      -1.08386338
Al       3.56598003       4.90974001       4.10596993       0.48698686      -0.03663991       0.04552186
Al       7.70648997       6.99654999       2.92245993      -0.36470845      -0.84653532       0.02200610
O        0.79082200       7.25952000       1.58661999      -0.01843076       0.58793709       0.84095583
O        4.90478001       4.97648004       0.00000000       0.66614825      -0.93157220      -1.55005963
O        0.70705797       6.74656003       4.09064997      -0.56092161      -0.73174885       0.94386340
O        4.90544001       5.10529002       2.99609998       1.25835897      -0.34809696       0.53928339
Al       6.27684003       1.09896003       4.21688991       0.32341903      -0.26103471      -1.85455059
Al       6.30975000       1.01569004       1.50841000       0.08351674       0.53250671      -2.24421223
Al       6.30975000       6.03280997       0.05586699      -0.06441547      -2.45191529       2.03784741
O        6.30975000       7.05828004       1.54192993       0.08804091       0.40014476      -0.43100490
O        6.30405002       7.33120999       4.20955006      -0.23894567       0.40659281       0.08422278
Al       2.10325000       7.07311999       0.10056094       0.22414929      -1.36477318       3.89603399
Al       2.00970998       7.32993000       3.08690991       1.59859413       0.05638060      -0.60527184
Al       2.11521000       2.54180000       4.38706008      -0.20095431       1.26490160      -0.32605542
O        2.13218996       1.21227001       3.00857004      -0.40741835      -0.51661764       0.98949379
O        2.10325000       0.91648898       0.17318799      -0.08351506      -1.72425265       0.42117225
Al       2.10325000       4.02546002       1.46929996      -0.00903710       1.01344897      -2.44552917
O        2.10325000       5.18572999       0.05028037      -0.03481608       1.67352620       0.57584676
O        2.07484998       4.54043998       3.16481005       0.27102032       0.41718603      -0.76718877
Al       6.30328999       3.92121001       3.13379000      -0.46227195       0.29631694      -0.93895245
O        6.32751001       2.79200998       4.46394004      -0.17172975      -0.39892503      -0.17033202
O        6.30975000       3.01696002       1.46929996      -0.08669500       0.20764403      -0.31850234
40
Lattice="8.413 0.0 0.0 0.0 8.068 0.0 0.0 0.0 19.41349599" Properties=species:S:1:pos:R:3:forces:R:3 step=0 confid=0 wdir=cand4 energy=-280.32379119 pbc="T T T"
Al       0.61883698       4.87938997       4.05390993       0.92366725      -1.00219070      -0.18537653
Al       4.95153004       6.91676998       2.95406005      -0.34555480       0.78220818       0.45584486
O        3.41568002       7.25952000       1.58661999      -0.01379663      -0.00898643       0.91043885
O        7.71471999       4.97648004       0.00000000      -0.62439038      -1.00328484      -1.49585917
O        3.45124000       6.74085999       4.25421993       0.75046708      -0.67982146      -0.60754941
O        7.66670002       5.05800000       3.01300991      -0.76808119      -0.71823957       0.00058336
Al       4.83747996       3.15149997       0.15642793      -0.36058836       0.31533534       3.32143672
Al       0.66462700       1.12006003       1.55868999       0.25538077      -0.59557880      -1.95531928
O        7.70823996       0.79857403       2.79760999       0.02957262       0.46397590       0.23495138
O        3.51889003       3.23591998       4.67663994       0.70496462      -0.15936505       0.25611727
O        7.62218002       1.20653003       0.21229493       1.21858699       1.54538834      -0.21145210
O        3.49981002       2.93662001       1.43578004       0.12103632       0.36476949      -0.63601403
Al       7.78202004       3.15149997       0.15642793       0.31172010       0.36851645       3.29618054
Al       3.54186997       1.12006003       1.55868999       0.34791450      -0.99179497      -1.61936840
O        5.00137000       0.83011297       2.80256004      -0.29502802       0.24385080       0.07092205
O        0.93821902       3.32848002       4.70260005      -1.35924870      -0.52550558       0.55149747
O        4.99731998       1.20653003       0.21229493      -1.17362682       1.61532614      -0.37189791
O        0.70669200       2.93662001       1.43578004      -0.14283661       0.44970420      -0.54638705
Al       3.62068001       4.86538997       4.08506004       0.03872779       0.25440213      -0.18197208
Al       7.83063001       6.90641002       2.91115992      -1.79017982       0.40695680      -0.00792656
O        0.79082200       7.25952000       1.58661999       0.10856050      -0.25739964       0.91850685
O        4.90478001       4.97648004       0.00000000       0.65151495      -1.02762186      -1.50085486
O        0.70976796       6.63017001       4.20677995       0.45403689       1.31424725      -0.10177470
O        5.02370996       5.07846997       3.04796993       0.25942513      -0.47069823       0.53358769
Al       6.42885999       1.04756001       4.12531995      -0.76037688      -2.08113212      -1.19907468
Al       6.30975000       1.01569004       1.50841000      -0.08397738      -0.01031260      -2.40183947
Al       6.30975000       6.03280997       0.05586699      -0.07383830      -2.33628358       2.11200217
O        6.30975000       7.05828004       1.54192993       0.33733851      -0.00529685      -0.69746678
O        6.31724001       7.34478997       4.22628993       0.58055301      -0.47819419      -0.21474230
Al       2.10325000       7.07311999       0.10056094       0.23544120      -1.46144721       3.92793668
Al       2.10594998       7.11900997       3.07718006       0.76436835      -0.49343650      -0.41627000
Al       2.18023997       2.26629999       4.24203000       0.34324972       1.24528292       0.02341835
O        2.10628003       1.02175000       2.95479000      -0.02171567       0.25160356       0.94402595
O        2.10325000       0.91648898       0.17318799      -0.11762565      -1.69635456       0.36027376
Al       2.10325000       4.02546002       1.46929996       0.17808591       1.55032774      -2.74819317
O        2.10325000       5.18572999       0.05028037      -0.06797875       1.61291582       0.28799881
O        2.18228997       4.91209998       2.99368009      -0.87648994       0.46106850      -0.26194230
Al       6.33569998       3.84945999       3.14058007      -0.20868630       0.62527095      -0.93079163
O        6.33450004       2.66042001       4.40451999       0.34856950       2.04758148       0.40861441
O        6.30975000       3.01696002       1.46929996       0.12083849       0.08421276      -0.32226477
40
Lattice="8.413 0.0 0.0 0.0 8.068 0.0 0.0 0.0 19.41349599" Properties=species:S:1:pos:R:3:forces:R:3 step=0 confid=0 wdir=cand5 energy=-279.39485829 pbc="T T T"
Al       0.55426602       4.85751996       4.03786001       0.04198646       1.23289802      -0.60054229
Al       5.03501998       6.86738002       3.05511992      -3.24852999       0.21820145      -0.67196740
O        3.41568002       7.25952000       1.58661999       0.05549466       0.48412323       1.17469620
O        7.71471999       4.97648004       0.00000000      -0.75743050      -0.95063269      -1.47261825
O        3.34668997       6.67332002       4.20270991       2.14192012       0.34106198       0.30888585
O        7.52283999       4.96991003       3.04988992       1.17115559       1.83117271      -0.00909244
Al       4.83747996       3.15149997       0.15642793      -0.62393161       0.18332654       3.10998801
Al       0.66462700       1.12006003       1.55868999       0.23768795      -0.79686255      -1.83462335
O        7.66876002       0.86754397       2.77005991      -0.92457237      -0.39686659       0.35999058
O        3.55210001       3.27676003       4.84572003       0.52383236       0.29269085       0.51060410
O        7.62218002       1.20653003       0.21229493       0.98062261       1.62745189      -0.34299502
O        3.49981002       2.93662001       1.43578004       0.44979555       0.49716332      -0.82807747
Al       7.78202004       3.15149997       0.15642793       0.64922001       0.30287378       3.25726637
Al       3.54186997       1.12006003       1.55868999      -0.51311469      -0.62186717      -2.16959682
O        4.86128000       0.91517502       2.79641004       2.09957897      -0.32865608       0.82696558
O        0.73446802       3.41146997       4.92167009       0.11996260      -0.53101544       0.68931017
O        4.99731998       1.20653003       0.21229493      -1.00731290       1.53878282      -0.29089416
O        0.70669200       2.93662001       1.43578004      -0.36844559       0.33777376      -0.84535580
Al       3.64874999       4.91268999       4.25201009      -1.52900931      -0.52825408      -1.11671219
Al       7.60540004       6.91364000       2.98704009       2.65861328      -0.47358413      -0.21279753
O        0.79082200       7.25952000       1.58661999       0.11511687       0.67167890       0.40719692
O        4.90478001       4.97648004       0.00000000       0.71856763      -0.94710780      -1.29254554
O        0.69890602       6.75516003       4.08492997      -0.88117030      -0.88854177       0.31576706
O        5.07642002       5.03668999       3.26429995      -1.65370989       1.46532759      -0.20463002
Al       6.30339002       1.12888997       3.95969002       0.14224552       1.07959394       1.94506009
Al       6.30975000       1.01569004       1.50841000      -0.28141042       0.20599312      -3.76004063
Al       6.30975000       6.03280997       0.05586699       0.07687331      -2.48195074       1.81943093
O        6.30975000       7.05828004       1.54192993      -0.31715364       0.15739837       0.22589587
O        6.26063003       7.39104002       4.24661003       0.55445577       0.32682672      -0.38757554
Al       2.10325000       7.07311999       0.10056094      -0.16947833      -1.46125974       4.39028406
Al       2.12776001       7.36515997       3.10548998      -1.02685786      -1.90810673      -0.48187721
Al       2.09484003       2.55407998       4.38260992      -0.20761347      -0.59368903      -1.02934456
O        2.07319001       1.11851000       3.09998994       0.11098535       1.25890810       0.33530148
O        2.10325000       0.91648898       0.17318799       0.08199629      -1.41221322       0.47173376
Al       2.10325000       4.02546002       1.46929996       0.03008971       1.65869794      -2.23280578
O        2.10325000       5.18572999       0.05028037       0.03137009       1.48844275       0.25679037
O        2.09903997       4.74947000       3.07332007       0.50407246      -0.57867723       0.28440899
Al       6.21539997       3.80225001       3.04719009       1.70190889       0.02062602       0.95642588
O        6.56971002       2.80633996       4.42007991      -1.31846357      -1.98827963      -0.50859050
O        6.30975000       3.01696002       1.46929996      -0.36934765      -0.33344916      -1.35331975
40
Lattice="8.413 0.0 0.0 0.0 8.068 0.0 0.0 0.0 19.41349599" Properties=species:S:1:pos:R:3:forces:R:3 step=0 confid=0 wdir=cand6 energy=-279.08090447 pbc="T T T"
Al       0.60757702       4.94949000       4.16848993      -0.47433024      -0.92789663      -1.02899938
Al       4.85111003       6.93934997       2.89254994      -0.40689333      -0.19146146       1.65384324
O        3.41568002       7.25952000       1.58661999      -0.00595807       0.10637465       0.35736391
O        7.71471999       4.97648004       0.00000000      -0.76105703      -0.84556226      -1.49846749
O        3.38538001       6.62976000       4.12331997       0.04477715       0.79354300       0.02058006
O        7.67118002       5.05572999       2.98659008      -0.46375454      -0.73037312       0.13979094
Al       4.83747996       3.15149997       0.15642793      -0.54593852       0.28229260       3.34885976
Al       0.66462700       1.12006003       1.55868999      -0.27397120      -0.34013703      -1.62481482
O        7.65586996       0.84754598       2.80291007      -0.52676771      -0.12614221       0.07502156
O        3.45564000       3.39836004       5.05269003      -0.68778044      -3.33463302       0.98571797
O        7.62218002       1.20653003       0.21229493       0.99822425       1.50274846      -0.39333685
O        3.49981002       2.93662001       1.43578004       0.60672054       0.33666185      -0.94726481
Al       7.78202004       3.15149997       0.15642793       0.65152256       0.23385736       3.41546298
Al       3.54186997       1.12006003       1.55868999      -0.11712178      -0.43436256      -1.45667429
O        4.91561999       0.78065500       2.89797000       0.10130362       1.02167318      -1.05163933
O        0.70509900       3.46974998       5.06554992       0.08507653      -1.31299288       0.17048031
O        4.99731998       1.20653003       0.21229493      -1.07318888       1.38851158       0.02206390
O        0.70669200       2.93662001       1.43578004      -0.43284649       0.42013189      -1.10949938
Al       3.61828003       4.81804001       4.23108991       0.38339212       2.42865741      -2.02929113
Al       7.61407998       6.90592998       2.78346007       1.98493247      -0.07786085       2.59258354
O        0.79082200       7.25952000       1.58661999      -0.14699453      -0.04366080       0.00956007
O        4.90478001       4.97648004       0.00000000       0.70045442      -0.89298502      -1.37926375
O        0.69371899       6.67698999       4.09652993       0.21493970       1.58708374       0.01011238
O        5.03720997       5.13824998       3.17255002      -0.17119104      -1.62684430      -0.24902454
Al       6.26836999       1.07469003       4.27663999       0.16718175      -2.32627412      -2.55771726
Al       6.30975000       1.01569004       1.50841000      -0.04449792       0.50039976      -1.28206246
Al       6.30975000       6.03280997       0.05586699      -0.00367530      -2.53998322       1.63784806
O        6.30975000       7.05828004       1.54192993      -0.80924668       0.09512358      -1.64827514
O        6.26653999       7.27138996       4.21723004       0.34713575       1.04872799      -0.24911542
Al       2.10325000       7.07311999       0.10056094      -0.07758050      -1.31086596       3.94481145
Al       2.06458999       7.30724997       3.04909999      -0.14608086      -2.10325250       0.76025883
Al       2.01578004       2.46008004       4.47079010       0.63580949       2.42881039      -0.62392258
O        2.04616998       1.03133002       2.91271008       0.41854120       2.37288490       2.25878203
O        2.10325000       0.91648898       0.17318799       0.08187884      -1.73816838       0.18608175