360
Lattice="17.29182923 0.0 0.0 0.0 17.29182923 0.0 0.0 0.0 17.29182923" Properties=species:S:1:pos:R:3:forces:R:3 step=0 confid=0 wdir=cand0 selection=->scf energy=-2371.30302505 free_energy=-2371.35237391 stress="0.048029950887422165 -0.008515236430792389 -0.001030955400644428 -0.008515236430792389 0.039321474331926544 -0.008755845290636763 -0.001030955400644428 -0.008755845290636763 0.053172245028430265" pbc="T T T"
Al      16.78690004       7.50906002      16.54200001       1.34438785      -1.53762070       0.43825727
Al      13.22860004      14.80940005      12.44210003       2.25590623       0.11039452      -0.12211434
Al       1.67185999       8.54907000      13.79109996       1.93997368       2.19326834      -1.29121077
Al       6.16035993       2.95158003      14.57439994       0.03925366       0.90980033      -0.13611872
Al       0.35800796      15.61289999      12.81760006      -1.58111199      -3.58940762      -1.56816755
Al       5.43237997      15.36660002      16.13030006       3.28980079      -1.97437692       0.65266453
Al      11.00789998      11.51140001      15.12100002      -3.67964041      -1.67235989      -2.12509173
Al       1.35427998      13.08549995       6.82198008      -2.28126765       2.00372476       3.01032894
Al      16.86629996      12.37190005      15.47410004      -4.48567181       3.84153462       3.20001342
Al       1.32268003      10.14130008      16.30220003      -0.32676447      -1.70634745       3.52297489
Al       3.31576999       3.45224004      17.18581527      -2.45634131      -1.32770175       1.86083247
Al       3.78056000       6.55552993       2.95504998      -0.65376132      -1.90730716      -1.82066297
Al       0.90883001      10.07740002      11.24479995      -0.35106961       1.27236100      -2.76300400
Al       4.07446992      13.44699999      11.47560004       2.24249046      -0.20663551       1.37924712
Al       0.95575399      16.42700001       1.12999994       0.63455327       1.72067980       0.59361458
Al       4.93898996      15.47570005       2.62922004       1.01334654      -1.95672858       3.56319328
Al       5.70725003       0.66005298       6.61648000      -0.69618771       0.73947121       0.39264619
Al      11.40570007      16.88349997       6.53904996       1.78841905       1.91908049       1.39690329
Al       2.52198995       2.09505002      10.28029993      -1.16586556       2.47509320       0.19167307
Al       3.73575999       2.75056995       6.97332007       1.13501619      -1.63963350      -2.10857055
Al      16.40380008       9.55602007      14.22470001      -0.42107490       1.05792939       1.61538839
Al       8.75068996      17.08239630       4.93181005      -0.39721774      -0.00035453      -0.98769780
Al      10.14569998      17.14588619       9.74300994       2.24851495       6.18470007      -2.46934855
Al      12.75289992       6.25277006      14.72430004       2.35025426       1.11494822       1.16327490
O       16.78639996      12.32179991      11.29230008      -0.40172822      -0.51269183       2.10885538
O        5.85797996       4.61784992       0.81079693      -0.52849134      -2.89352929       1.88781229
O       15.56960004       5.39269004       8.53651993       2.17928550      -1.58723242      -0.11692249
O       14.74350002       9.87647000       5.62004993       3.27774832      -1.99676557      -0.22200089
O       12.23559997       8.09896005      14.63270003      -3.61227935      -1.14610462       2.51725603
O        1.67562995      15.93809999       2.66110998      -0.86879115      -0.60435933      -0.80678330
O       10.46140002      11.73620001      11.55320007       1.37363122      -4.46197521       6.64657833
O       11.93630002      16.76380005       1.44515996      -6.38635061       0.66160599      -3.86379562
O        6.57541000      10.25589994       5.24349994       0.10970302       1.52384493       1.00686892
O        7.64593003       7.24627004       6.39547002       3.62647689       6.20337456       5.95272622
O       16.63529997       9.10083999      12.43639996       0.58861980       0.22968827       3.26980626
O        1.98348002       2.15440993      12.05850000      -0.49071271      -5.26962775      -0.08211891
O        2.19594006       8.54783000      11.22719998       0.10391624       0.38341250      -2.96891550
O       14.28039993      14.49809991      17.13290228      -1.34493531      -4.35434098       0.25529821
O        6.98152003      14.79510005       0.00704435      -7.66439330      -2.28749074      -4.00029215
O        6.57146003       1.54081991       0.51284401      -0.32751632       0.79052395      -1.36243968
O        0.70591005       9.99316997       0.76426600       1.17033361       0.19723888       0.27492604
O       16.75990005       2.38086995       7.70933001       0.75257417       1.73943854      -3.79397599
O       10.42360008      12.85479997       3.20722001      -0.09460783       0.72641610       1.58075801
O       16.52400008       4.16509000       2.38251008      -0.68696261      -3.05941614      -0.04123860
O        4.00082004      14.95539998       7.05081997      -0.41517927      -1.33522234      -1.12287852
O        5.01453001      11.42300003      12.23030003      -2.35110138       2.66761937       1.55592387
O        5.97573006       8.77100993      11.43960001      -0.80995706      -0.58278279       2.35192492
O       14.07629998       2.44911008       8.28933998      -0.01241338       2.39241212       2.53851192
O       13.11669994      14.39249992       4.83041007      -5.01395539      -0.62466474       4.00393158
O       11.86570008       4.26651003       8.86592997      -1.19253574      -0.43006704      -2.79054236
O        7.46664005      10.53889992      13.22579997       0.11293335      -0.32061070      -0.23331538
O        4.30170997      10.25410004       9.99250008      -2.61714850      -1.64089730       0.32635408
O        6.41369993       5.41386008      11.38449994      -1.94750766       2.24066941       2.33347482
O        8.38089001      13.79439993       7.82871003       0.09475290       2.21223536       0.24700059
O       10.33080002       9.82536003      15.48840003       2.00971894       0.31243288       0.97370677
O       13.26330007      12.38130006      10.33200007      -0.07325791      -4.81564495      -2.19723034
O        9.79292004       2.68218993       6.94206007      -2.33163885      -3.30739669       0.21494234
O        9.77660001      10.36369997       4.25637996      -1.24549405      -1.14144779      -0.64667304
O        9.69961004       9.24777005       6.52152002      -0.28524320      -0.36155844      -1.17256609
O        9.08072994       5.62347008       6.32164999       5.35505185      -0.97132275      -1.24587180
Al      11.55040000       4.20673996       2.31597008      -0.58960812      -1.29434969       1.13117116
Al      16.92760002       4.80167001      14.77479996       2.79544203      -0.26642321      -2.17837844
Al       1.30821005       8.43780001       1.83698001      -2.89008591       1.24201185      -9.10802845
Al      14.29710004       9.13743002      16.94885721      -0.26935405      -0.92766357       0.83531544
Al       4.98589993       5.09570996      12.86410004       1.34068416       0.40088791      -3.07323217
Al      13.18519997       1.00013001       4.80329009       3.91812900       2.43027609       4.30448282
Al      14.57290004       2.60636993      10.27840007       2.22210717      -3.16207725      -2.75353654
Al      10.34579999       2.10044005      15.55730002       2.13447143       1.04998494       0.71970549
Al      16.21710002       8.78454995       4.44032007       0.27771119       2.96885533      -2.16188765
Al       3.63799008      16.56310002      12.71200007       0.11081348      -4.00468584       2.33958745
Al      11.10729999      13.65410008       0.03584527      -1.04455944       1.71930582       1.50425257
Al      15.28210004       8.93067006      11.45699991      -0.49204773      -2.29406168      -2.43682906
Al      13.12129992      10.18369999       5.46940005       7.04774294       6.45190776       0.32379471
Al       6.44164992       2.96809995       1.51689995      -1.50677824       1.02955013      -0.28105267
Al       8.96667995      15.56719994       7.84123000      -0.51300831      -1.60066024       3.81488271
Al      12.76110005      10.79630004       8.88243001      -0.31464618       2.25790103      -0.03856203
Al       8.58875008       8.59970998       7.66231006       0.73271152      -2.12517053       0.65489940
Al       1.01529996       8.43150008       6.66158003       1.04934277      -2.36903771      -0.76293136
Al       8.75153000       6.54575002      12.22080007      -0.27572119      -1.39920946      -6.27511287
Al       1.74840002       4.20979992       3.08457996      -3.13239388      -2.92417432      -1.71464138
Al      17.24552897       2.77000994       1.02265002       0.58917852       1.66443520       1.60556552
Al      12.99690008      16.83839994       2.53792005       9.92679770       0.29241833       8.20209137
Al       4.06559004       8.61709000      14.93650001       4.37091340      -0.52479440       1.53570153
Al       6.92878998       0.43128295      13.62699998       0.27894876      -1.28909235       0.99915651
O        2.55566008       7.99037999       2.72626991       5.87649020      -0.95056646       2.46085369
O       14.93989993       6.88218002      11.20509998       3.59422220       2.04380165      -1.44142496
O       14.12699997      17.10694620       4.13102008       2.21794269      -1.43191330       0.17931722
O        7.82644999      12.31930003       2.81544007       0.04421258      -3.63414307       0.13308509
O       13.36649996       4.38812001       6.21690992       0.80637738       0.45200714      -0.93866139
O       10.86989995       2.67732003      10.14620006      -4.34429545      -1.52323652       5.03993151
O        0.18748303       8.49646998      15.31109999       0.76691858       2.11374070      -4.34818180
O       11.39579998       5.83368996       1.70305998      -0.09636850      -0.00815673      -2.73497238
O        7.34355992       9.05980994       2.83260999       0.63676023       7.03078015       0.06968357
O       15.21490001      12.69499995       5.50275997      -2.92256915       3.82496830      -0.34366120
O        7.83737998      16.71480002      12.38869993      -1.21784796       0.19515350       1.17633712
O        9.26189004       5.03735004      11.47360007       2.90171366      -2.54738003       1.11189257
O       15.86109999      10.85749998       3.54270000       0.32481435      -1.05364038      -0.62467484
O        0.32856499       9.44615004       5.32356007       1.47683642       0.67655199       1.77356326
O        2.72711998       9.39090005      15.71989993      -1.33591717      -0.06418465      -0.66354063
O        3.92838993       0.21925901      11.42839992      -1.37985837       3.00694134      -6.60596831
O       16.47300008       1.32269992       2.63749003       0.65570390      -3.28270960      -0.91497396
O        8.98669005       0.11411293       8.51624993      -0.72560903       3.00796078       2.58984086
O       11.95139994       5.13633002      13.80140001      -2.56738994      -2.35947622      -2.88676105
O       11.64569994       4.08967998       4.00467007       0.89558359      -0.49417222       0.41894325
O       14.76469998      13.34959996       2.58235002       1.84739365       1.10373570       0.41169282
O       11.68599993      15.09769997      16.32999993      -0.85574733       0.17790252       2.01345397
O        7.12685007      12.28710005       9.83227001      -3.02346253      -3.51264150      -0.36744479
O       12.58259995       8.91098003       0.25740600       2.41439131       1.08069026       0.00645680
O       16.63529997       7.11403008       5.04334996      -5.10225313      -0.30656571      -0.55517997
O       14.75829992      16.21380005       2.24284000      -2.90321073      -0.36224016      -5.66004154
O        0.35584406      13.43869991      14.44119994       1.24760820      -0.21508224      -1.97079804
O        5.42178008       7.87671993       6.80129006      -1.43402737       0.08597425       0.76472491
O       13.77389995       7.49104003      13.25929995       1.83325905      -1.73195954      -1.28504827
O       16.65310001      11.67819993       7.45711000      -4.17387841       1.20501274      -4.14844605
O        3.40610994       7.94709006      13.48200004      -2.28702090       0.63643471      -1.24920312
O        5.23279007      16.92669998      13.47120008       1.26708216      -0.26751576       2.21178220
O        3.69424991       2.19884007       8.66931997       0.57942642       0.27905189       1.95795073
O        4.93795003      14.80520003      12.57630002      -2.60785779      -0.40179138      -0.92659809
O        4.19677001       6.91623006      15.86820002      -2.11723407       2.14408082       1.48438392
O        8.08880992       8.52906006      15.84810000      -1.26948307      -1.72581033      -1.75444513
Al       6.68292005       9.06029999      13.23689994      -0.93236855       3.71013236      -2.43385264
Al       4.76168992      11.68369994      14.27389994       0.89165084       3.94981554      -4.82215529
Al       2.76332008      11.55409993       5.57585997      -1.14866146       0.26396369      -2.40187124
Al       1.62479993      12.91629992      13.28169996       0.14299987       0.40756198      -0.03671299
Al      13.11750004       8.06885999       7.25468995      -1.26761599       0.04809600       1.02847133
Al      14.94190007       3.04772000      13.44609995      -0.07570927       4.62850198      -1.65888671
Al       3.80885998      13.90609996      14.75780002      -3.22283616       1.44338873      -1.79904803
Al      13.60399995       5.05433995       7.80915003      -1.92988789       0.35920705       3.15847091
Al      10.77610007       8.66131005       5.19231007       0.30460736       0.06454682       1.35610806
Al      13.47559999      14.03820003       9.61015993       2.90793545      -0.05176094       0.71000803
Al      16.50660000      13.95899999       1.87216992       2.24545869       1.58646654       3.16481071
Al      12.47629999       5.32337004       4.76548997       1.74509921       1.18716221       3.15307114
Al      10.62770004      12.79750004      10.39410005      -1.64344179       2.30445155      -3.97123936
Al      15.40580008       3.19956993       6.46205999      -2.63466492      -0.87935462       1.64733422
Al      16.13910004       2.66762001       3.47989002       1.31457924       5.02655808       2.79816209
Al       3.49416996       0.47613899       9.03990998      -1.04942792      -0.97840998       1.34418966
Al      13.51540007      11.90320000      15.15280004       1.69199944      -0.04303109      -0.87815440
Al       7.53497995       5.68837997       7.52935008       3.08182857      -0.73323808      -0.11134728
Al      15.97670002       6.28086998       6.91058998       2.69913745       2.51984230       0.68807552
Al       4.49061006      13.87090002       5.70620992       2.16261199       2.48571251       0.40234060
Al       6.25224992      10.94150005       6.85384996      -1.45989440       0.35334507       0.30951662
Al      10.66180004       4.12340994      13.04039992      -1.31280546       0.63409587       1.13544076
Al       4.08416009       8.72024994      11.20500003       0.35378991       1.68096998      -1.05344930
Al       7.34141003       6.68984992      15.11889993      -2.42273396       2.87086041      -1.24646017
O        7.44077994      13.77609999      13.11499998       1.43429559       1.61090346       0.38119602
O        0.21730400      17.13677115      11.89790006       1.02164353       1.70951522       2.48022334
O        8.33409002      16.73940007       6.69645004      -1.08862933       1.30380076      -6.39582229
O       17.10772416      16.63840005       8.42974998      -0.74125321       1.47062165       0.45831748
O        6.19216998       7.72626995      13.94620006      -1.41092773      -4.36881788       2.99046040
O        7.20457995      16.32760000      15.00340002      -1.77287237       0.09447109      -1.06274777
O        0.70019199      12.27719996       5.51880004       2.05309545      -2.72287217      -2.68878790
O        0.69661500       4.48039993      13.31690007       0.43365189      -0.86795343       0.15772639
O       16.82829996      15.56240007       0.69818199      -1.46786223      -3.20721079       0.36314605
O        5.36308003      13.52580007      14.54769997       2.27602202      -3.72927142       1.60475377
O        7.38581008       1.65954008      14.95769996      -0.47905072       0.68428427      -0.08313067
O       16.09240000       2.68966000      16.98764330       1.40176630       0.63070671       0.46032639
O        0.22594593       7.30327999       7.71162999      -2.21661754       0.12504109      -1.47475269
O        2.72371003       0.32210804      14.17920002      -0.81976252      -0.32447206      -2.92519934
O        2.77390008       4.67830008      16.07459996      -0.50690816       0.64169565       1.05211442
O        9.26303009       1.29592006       3.67945001      -2.81708121       0.04030037       1.68006679
O        5.30349999      14.31080001       3.98168992       1.06795833       1.17209176      -0.89380793
O       12.10070001       0.75225907       3.63336002      -4.32248191      -0.51079032      -4.01877537
O        0.65549002       6.72513995      10.01110004      -4.01242913      -2.35517186       1.81334899
O        6.40449998      15.46630004       8.80633005      -0.34523408      -2.06609446      -0.80546386
O        1.54495992      11.13829992       9.75269993       1.99376858       0.83334363      -0.37561339
O       11.85920008      12.54039993       1.15547997       5.96369474       3.11681860       0.82031432
O       11.65460004       0.63015195       8.67047005      -1.29659182      -1.90814537       1.23849428
O       10.32170002       8.62398996       0.72730696      -3.21131308      -4.68807977       2.66874142
O        0.26661096      10.93860004      15.31130006      -0.33304247      -3.64948831      -3.56220885
O       17.14331714       0.73459892      14.76200003       1.72763324       0.46847632      -4.04210431
O        1.47417997       3.79765004      10.01709996       1.97481914      -0.44103797       2.22909525
O        4.50058001      17.17612718       7.81757997       1.31944529       0.37981312      -2.31004161
O        4.52582003      11.04439992       7.65394998       5.45390902      -1.72105701      -1.89085629
O       11.81440006       7.08485997       5.99233004       0.79478177      -0.73643785      -0.08958146
O       10.84150002      11.21340006       9.26138996       1.44950564       0.37466661      -3.57733807
O        3.67603003       2.40019996       1.38032995       2.84213704       0.27261840      -1.22626149
O        2.65653992      16.09709992       8.80496002      -1.23567991      -0.14217785      -0.50512309
O        4.60306004      14.23259996      10.07210008       0.15732633      -1.26631317      -2.03365958
O       13.49950006      16.36469997      13.24989994      -1.59375675       0.23575865       0.21983999
O       13.99950005       9.97420999      11.64610007      -3.80637017       1.17975824       2.79952241
Al      10.52579998       8.26404999      14.37029998      -3.11164482       1.98821637       0.85755409
Al       9.05443996      14.29689997      12.86150004      -2.84877274      -3.84471128      -1.04363618
Al      14.07480008      10.34559993       2.77929998       1.91200388      -0.91119414       3.41999417
Al      10.01089997       4.06216004       9.74812002       3.07129967       1.64138726       4.09310975
Al       6.78081999      15.37739998      13.11200002      -3.31817326      -1.04299732       0.04473221
Al       1.95342994       8.81347002       4.18046001      -1.80810755      -1.42358148       1.46102532
Al      12.89119997       8.96513008      13.28970003       1.95142070       1.07675325      -0.95632433
Al      14.01190002      13.19380006       1.07270001      -3.98820715      -1.56175406      -1.02625199
Al      10.83119997      11.80630005       4.49242000      -0.05403909      -2.00921369      -1.85323884
Al       9.04514992       7.80290007      16.94704831       3.18682873      -2.12070477       2.46272287
Al      16.79749993      11.43720008       1.72145002       1.71702259      -1.19953825       0.45270934
Al       8.40018994       1.43663993       7.50344000      -0.06726604       1.66972922      -0.27514114
Al       8.85809003       3.37548006       3.08145999       0.85180499      -2.96682191       1.70637143
Al       6.58856995      13.52469996       8.84352996       0.74715515       4.32019680      -1.19696357
Al       9.41668995       6.30576001       4.28603994      -2.50239957       1.40976143       2.42003094
Al       5.07615999       1.56635995       3.85000001      -3.83452264      -3.27133438       4.25718281
Al      17.07999827       0.03037777      10.22019993       0.56446121       1.44140208      -1.78234778
Al       4.72524999       1.21330005       0.55258202      -0.74148735      -4.33782840      -0.64408897
Al       4.54972996      15.31219993       8.72922993       1.31295741       0.20512620      -1.36021452
Al      13.71030008      13.40920005       6.61929995       1.91858931      -2.47161901       1.43479940
Al      10.12859992       8.37909996      10.73940007       0.29228610      -1.61169460      -1.57454939
Al       6.35960002       7.10727001      10.72299998       1.81000030      -1.82295889       0.27439178
Al       8.04836001      13.93509991       3.34860008       0.91307456       0.59646397       1.08159440
Al      10.74249997      14.43910002       5.60747998      -0.73765561      -0.85217719      -0.00766832
O        6.19608001       0.68496498       4.95540008       1.58109094      -2.28572247       1.00269743
O       14.52880000       8.49837001       3.17082002       0.84553353       0.04485489       1.38581196
O        2.13352001      15.34870004      13.30070005      -1.31396953      -0.47658740      -1.14760023
O       14.31170005       6.75206005       7.01362992      -0.40176634       1.41749926      -1.45750706
O        3.82234000       1.46789992      16.17269997       0.80101355       2.89339782       4.16814162
O        8.68981995      13.83599992       5.16364005      -0.50840385       1.45555031      -2.15592368
O       10.54569994      14.71390004      12.49340005       5.58907731       1.20291066       4.74476258
O        8.53403008       6.81934999      13.76070006       1.42797712       0.20466403       4.74698885
O        5.21514999      10.25289999      14.79489998      -0.47863868      -5.97818866       1.53755367
O       16.56200008       0.41214297       5.48517003       1.55914234      -0.43772827       2.85040564
O       14.72569998       0.17614702      16.40980000      -0.08775861      -1.43339181       0.53490930
O       10.04550006      15.55939994       9.46679994      -2.40462163      -2.40092534      -4.52267570
O       16.52220000       4.85914996       6.07633997      -0.67173580      -3.26897047       0.75864685
O        9.77070004      12.27470008      14.23270008      -0.86532490      -1.21765070      -2.16345457
O        0.41125503      15.05999998      10.56619992      -0.30481110       2.24908814       0.16190215
O        5.47791005      16.77590001      17.04366831       0.16400770       3.75302244      -0.64535302
O        2.84922001       5.18237004       3.77834994       1.93309354       2.22164136      -0.73396440
O        0.25560592       8.49254992       3.00992007      -3.22437879       1.21806616       5.03099088
O       10.97769998       3.24797996      16.82040001      -0.78657867       0.55463755      -1.05375353
O        2.32779008       7.10416008       5.46325004       1.37598369       4.94547338       0.55120162
O       11.36979999       6.93844003      11.08050007       0.69276626       1.39928087       0.86059024
O       13.44620007       6.04052998       3.47882000       0.70515543      -0.64926724       1.24085675
O       10.37669997      11.10969992       0.86850408      -3.84860314       0.77552373       0.38936686
O        1.20245997      14.61320004       6.04937994       1.02753845       4.15268629      -0.20416871
O        2.31210000      13.40760004      11.16069992      -0.56525646      -1.61143274       3.44366711
O       10.41230004      16.13560000       4.93006997      -0.68625077       0.96753380       0.64187234
O       13.61599996      12.88439995      12.62990002       0.95723367       3.33326499       1.63355863
O       15.32639998       4.45339995      14.53850002      -1.88417686      -2.38915850      -1.87170749
O        3.17984998      13.30809992       4.78253003      -1.17358904      -4.02163540       1.84998668
O        2.58637002       3.92267999       6.94460992      -5.34907708       1.96770590      -0.93542350
O       11.09569994       2.50572007       2.09389994      -1.09241117       3.38204111      -1.54866413
O        8.90166993      17.03020022      16.94035620      -0.56089392      -0.70659783       2.14206299
O        7.25224004       6.59244003       9.03724998      -2.71607695       2.70830326      -0.92149256
O       13.41380003       6.09240996       9.25851000      -0.34190304       0.39160885       1.14904142
O        6.25915006       2.14714995       3.01885008       3.94999874       3.88064143      -3.41713167
O        8.38139995       7.88985999      10.99949996       0.47206852      -1.66009302       2.06476055
Al      10.08689998       4.34583993       7.16684002      -0.80261908       1.22737102       0.26200154
Al      12.16249997       2.18964998       9.31728994       3.60456394      -0.33269043      -4.60518757
Al      13.18949993       0.63692793      14.52160003       2.26275282      -4.67223046      -1.02063693
Al       2.56870002      16.65489992       6.85962007       4.34044356      -3.83890881      -3.14334958
Al      15.81220008      12.86169993      12.66760001      -1.60535009       3.48370905       1.13730700
Al      14.66239996      14.32430008       4.44607997       7.59941643      -1.01106864      -4.35523998
Al       0.70179200       3.93895005       6.27497000       4.88209745      -1.42641841      -3.07211350
Al       1.27258007       8.17089008       9.54331006       0.22873517       0.84802013      -0.70158707
Al       0.92174199      15.32449995       8.76649002       0.90601850       2.77758662       2.14080938
Al       0.07859500       0.52968902       7.02043996      -4.61224600       0.39173385       0.51463841
Al      10.60799998       1.07747999       2.72443006       2.90028529      -1.46533385       0.12082738
Al       7.58773006      10.38389994       3.81517998       1.55953587       1.13635337       0.45341668
Al      12.12059997      16.55829998      17.10971826      -1.04447639      -0.31331820      -5.14614608
Al       5.81653992       8.07126995       8.54029007       2.12950149      -0.01480190      -4.35324682
Al      13.34550007       6.24336002      11.01699998      -3.59111991       1.30714496      -1.42250186
Al       4.82622995       6.28640008       0.23552699       4.63424514      -0.13308586      -2.66726865
Al       0.44020398      10.94050006       8.25474006       4.60974002      -3.25201195       6.89599839
Al      12.60689999      11.60539995      12.12189997      -0.15631479      -0.35697351      -2.64915520
Al      10.11600005      10.84370006       7.28610004       2.75512028       0.44110524       1.57810027
Al       1.23407998       0.72190793      13.22570003      -0.17514495       2.22857222       2.45713626
Al      16.46430004      11.41759996       5.41154004      -1.29022992       0.84061277       0.78097063
Al      11.14019994       9.93464992       0.18572894       3.01650500      -1.95281271      -4.23750640
Al      10.69040004      15.24319999      10.96279995      -2.78757447      -5.64997832      -0.21161964
Al       6.67159995       6.55703000       5.34804997      -1.50566221      -2.60331335      -5.60442174
O       14.29199998      15.34550001      10.75489994      -3.86902686       0.58301988       0.53449582
O        5.01002999       1.83292006      13.89639994       4.38272494       7.79434969      -3.39074779
O        8.47127994      11.23290005       7.28493007      -3.92687139       0.17374531      -0.44996212
O       16.34890008      15.32869996       3.71816002      -0.27445293      -0.86808557       1.10457738
O       13.59299992       1.12998006      10.64460003       0.94506990       4.26741654      -1.07001426
O        6.63743995       9.70102002       8.67874004       2.55681307      -3.97253604      -3.88317178
O       14.95590005       2.08278994       5.20778004      -0.44564588       2.63468412      -2.54012447
O        9.08486995      13.95739998      10.87560002       1.86164741      -1.43609426       0.08065965
O        0.67925400       3.27607002       4.30269007      -0.19372014       0.55556020       2.31529024
O        0.87504697       7.52448001       0.27608792       3.53913466      -0.76576420       1.84341740
O        1.48450994      10.28880007      12.76879992       0.93579558       0.56751650       5.13306281
O        6.07885005       4.76801994      14.22909992      -0.56273320      -2.80524003      -0.54916940
O       14.03609993       1.74670992      13.69740003      -0.21077227      -0.12039188       0.35242037
O       13.54370005       9.20328007       8.91033003      -1.37437829      -0.30894349      -2.50291036
O        7.74706009       7.02821004       3.70925006       1.73362030      -3.46242779       3.19528727
O       10.28000009       6.32876004      16.27889998      -1.29245432       2.08636197      -0.13034049
O       12.05019992       9.46089997       6.25557998      -4.81663768      -5.36669463       4.95251920