360
Lattice="17.11616114 0.0 0.0 0.0 17.11616114 0.0 0.0 0.0 17.11616114" Properties=species:S:1:pos:R:3:forces:R:3 step=0 confid=0 wdir=cand0 selection=->scf energy=-2367.66825652 free_energy=-2367.76268177 stress="0.03867985713026827 0.00629703991371586 0.006243035131173973 0.00629703991371586 0.043588694450633694 0.004679095483403524 0.006243035131173973 0.004679095483403524 0.053500075364475076" pbc="T T T"
Al       1.66958002      16.49170008      15.91610001       2.31777657      -1.83840260       2.46003105
Al      13.61889997      10.31039994      14.46459991      -6.68868566      -9.66227625      -4.08967065
Al       1.91551991       0.48291400       7.85884996       6.15237622       3.54282751      -1.40956096
Al       7.49955007       4.55842002      13.42189998       6.31748008      -0.58485893      -2.83366086
Al      16.86310417       9.23030000       1.18480994      -2.76325799      -1.85028209      -1.75665282
Al      13.78459999      13.76989995       2.02476005       2.94719321       2.61461465      -0.33981639
Al       6.91150998       2.87778005       5.17372993      -2.63536878      -0.80730546       4.28741096
Al       9.02361003       6.01896995      10.72260006       1.44995415      -1.47651137      -0.89446661
Al      11.50080002       0.58173792      13.59980005      -4.68010361      -4.90643477      -3.05726563
Al      15.89039993       6.15117005      11.44019991      -0.19399064      -6.73316459      -3.72931707
Al      15.96220000       4.90069994       1.81994995       6.17734762      -1.76284106       1.52848259
Al      15.33790000       6.91582992      14.16160004      -2.18060685       0.97327097       1.92301654
Al       6.31862995      16.03139995      13.66329998       0.12741193       0.67141907      -0.33480976
Al      12.77089997      12.86019994       9.02040006       0.16144432       0.41931266       0.96289004
Al       2.38058005      10.44260004       0.05821857      -0.36230007      -1.79254591      -1.40624147
Al       6.56339995      13.60280000       7.94925992      -0.29543342      -0.14879202       2.15133913
Al       4.90592996       6.62935006       1.65068001       3.15678106       3.27054109      -0.09391657
Al       7.99268002       7.18689994       7.96664001       0.12694852      -1.96330426       3.99672331
Al       8.01587002      16.92480006       6.26995997       2.39602085       0.95596594       1.92671342
Al      10.07519993       7.57056006       1.76156997      -1.62938282       2.60995544       4.85866921
Al      15.65019994       1.91378998       1.11148996       3.68840494      -1.57599931       0.73457289
Al      12.37790007      11.53280006       1.78452993      -1.63747715      -1.39492668      -3.71870539
Al       1.31835006       4.97676005       7.39779997      -0.36198814      -2.60415815       0.47495587
Al       2.24587997       6.58509006      14.77100008       4.80915749       4.61703237      -9.08260980
O        4.14041992       8.03244001       9.31327008      -0.86228939       1.16422011       1.48674526
O       11.07329994       0.37552601       5.20299000       1.02188075       1.45897303      -0.40759903
O       15.84030007       5.04600006      12.80560007      -1.49001259      -1.37675138       0.90695483
O        4.32237995      13.08149993       9.37464007      -1.93325504      -1.72704061       1.30976558
O       12.81800005      16.32200002       6.56346003       4.48426659       1.93323264       0.04153809
O        9.67871997      16.04350005       7.10384993      -5.26271484      -0.16622910       1.93782549
O        6.22136000       7.49574994       7.74708006       1.17660386       0.29895476      -1.86143665
O        2.18219005      12.88580007       5.26733992      -2.15488239       3.80178082      -1.70594971
O        5.39138999       7.06608004       3.25106008       1.24404524       1.88579270       1.60799081
O       13.58269998      17.01076615      15.89260004      -0.64139537       0.40131964      -0.05448950
O        1.42981992      10.48900007      15.61500004       0.41776670       1.38804806       1.79866488
O        9.56047999       8.47729006       4.68764002      -1.04865460       1.85276313       0.85064825
O       12.75750007       4.83519006       8.48245007      -0.16038576       1.96776326      -1.16951945
O        7.41042006      14.66389998      12.90610001      -0.67937812       1.07249243       2.95423771
O        7.70770998       3.79491994       9.59622007      -1.67305359      -1.36160390       1.53695334
O       16.79950001      16.10900000      12.03330006       0.70056349      -0.75700458      -0.04802835
O       10.55040002       6.76428994      10.37030000       2.03537088      -1.71871735       2.15353137
O       12.35370004       8.06491998       8.71382001      -0.10477393      -0.90592356       0.79518820
O        9.11399996      11.50309992       5.99002995      -2.17004017      -4.20752418      -0.44694015
O       15.85180007       1.50067004      16.53929995       3.21505969       0.81313429       0.80952148
O       10.33539998       9.60502001      10.12790007      -2.82610918       0.01450388       4.16776085
O        2.15985003       5.46967006      13.38810001       0.93774003       1.11474256      -0.21716873
O        4.88169998       4.96707008       8.13154994       0.28263785       2.82813182       0.92018519
O       10.11009995      13.36229996       8.29979992      -0.54192129       1.00128933      -0.20952232
O        0.67503093       9.37267993      12.66819992      -1.70629085       5.55536161      -0.49330404
O        2.69047996       0.69333598       5.86976992      -3.38786219       2.92246847      -0.34172873
O        3.65001999       1.13066998       0.56988892      -1.48120157       1.64120263      -4.30057187
O       15.93309996       0.25073807       2.12497996       1.33144832      -0.50081971       0.01581300
O       14.32740002      14.20999992      12.35990003       0.91869214       0.33048907      -1.49389265
O        5.74600997       2.44978000       2.17479997       0.61626720       1.53223922      -0.63227876
O        1.57481999       5.66823996       5.86405004      -0.62190895       2.01170089      -3.73395079
O        4.16395995      11.92480003       3.81150995       0.60938850      -1.90135618      -2.84049316
O        4.95353000      14.21239995       7.55616006       1.04696214      -1.55731786      -0.75814600
O        0.76153806      11.70850002      10.84259993       0.63662759      -0.96677932      -0.68732071
O       12.29299998       7.21446997       6.03656999       0.24743063      -0.20873250      -1.46003305
O       10.98550002       9.56910996       6.70536002      -1.47842407       0.33657142       0.38472136
Al       0.16988406      11.20369992      12.42719992      -0.51971284      -1.48904481      -1.34497587
Al      11.70369996      13.92850001      12.45980005      -1.34874251       4.84112958       3.46667273
Al      16.80789993       9.15997996       4.13906004       0.05995507      -3.87716255       1.34938594
Al       7.12061007      14.21159994       4.80776997      -3.13359967      -0.23369429       2.90108826
Al      14.29900003       8.69671001       3.01403993       7.03840672      -6.66497220      -8.78166123
Al       4.24526000      17.00917315      16.50319992       2.01953142      -2.33797748      -1.98472736
Al      12.37209992      13.12020008       4.24629005      -3.28044740      -0.83076711       2.17941569
Al       8.99264997       2.85419005       0.00413817      -1.10925777       1.80787615       0.45180902
Al       2.02221008       3.94275000      14.03839997      -1.65520871      -2.14018752       0.10748356
Al       4.54857001       3.76144997       6.92758000      -6.57416699       5.58638940      -0.10393771
Al      12.26909999       9.00671997       0.17541001       1.34421708       2.94206567       1.58066325
Al      12.74900001       2.82136998       0.89380696      -0.25568663       1.48408428      -1.16813165
Al      12.98729994       1.09086995       5.06062993      -1.54270781      -0.49513944       0.53969891
Al       4.03494004       0.40846093       4.78365005      -0.67737815      -1.52322199      -1.23452018
Al      11.13960007       9.35940001       8.71478005       2.88832421      -0.81331427      -2.15093500
Al       0.95390608      14.33949994      12.28330008      -2.06042694       0.86382727       1.93304628
Al       7.55890994       7.50648006      14.89700001       5.16295388       0.90363098       0.20104843
Al       9.12605008      13.09139991       6.61420003       6.16919389       0.91042868       1.57534543
Al       9.26062008      16.72340001       3.59741998       3.07021031       4.42277080      -0.19920684
Al       9.91450005      11.78509997      13.51110000       0.95594460       0.39284972       0.83941923
Al       3.56341992       2.50358996      16.21870005       1.13748591       0.33779097       1.46044223
Al       9.13749994      14.26329999       3.78772995       7.20182533       0.39468891      -1.89141344
Al      10.64530006       4.75950000       1.18939006       2.81745481      -1.52674143      -0.69655390
Al      15.11709998       8.99019004      12.26360006      -2.83349913       4.70130723      -0.35795920
O       12.24310003       9.46057005      15.49870000       0.03192304      -3.09013234       0.96482464
O        1.34188992       9.63631999       1.04177994       0.45514049      -0.80853624       1.83625640
O       14.37699991      11.37269993      15.18209997       3.57093279       9.15311477       3.56278079
O       13.79510007       9.39390996       6.85662992       2.10943636      -1.19114497      -0.28536838
O        8.27162005      12.07940004      14.02460006      -0.57397897      -1.31472010       1.73342714
O        9.90284001       1.52447999       3.05809008      -2.20288292      -1.88151995       0.32178632
O        6.41253006      11.25940002       2.43898005       2.56446427      -1.89860992       2.14120865
O        2.97014006      15.29170006      16.69210003       2.09557917       0.44150238      -0.68308696
O        2.25374005       6.38418998       7.90465999       0.22616363      -0.43670842       3.99260210
O       12.01610003       3.91988999       1.93466999      -0.56689896       0.59734132       0.55099067
O        5.39334996       4.74003995       5.22274000      -2.49505481       1.39425000       0.56168931
O        9.80473993      14.59590004      10.74520007       2.40001789       5.24355021      -0.05658390
O       14.51879995       6.38803992       6.86448007      -0.20017472      -1.78857637       4.50422310
O        0.59943398       0.38113395      15.07479996       1.22685696      -1.52876023      -0.55932702
O       15.93330004       7.77398991       5.14975994      -3.38292633       2.56180682      -1.19776095
O        0.45276303       6.49427000      10.99959997       1.44973110       1.09619282       1.10836303
O        3.63465995      10.54580005      11.21250003       0.63968896       1.42233823      -0.74803376
O        1.98955998       6.05763005      16.18750003      -2.60741715      -0.55671668       7.19048036
O        8.11202999       6.98072003       9.82026001      -2.97662902       1.79983927      -4.43651282
O        9.81736995       2.75205997      10.02850002      -4.70481847      -1.95140855      -1.01156568
O        7.00905001       7.98217002       5.24126003      -0.93023996      -1.61567769      -0.84509547
O       14.67290000       8.73576002      14.22940007       0.00292143       0.07268379      -2.90158620
O        2.72016999      13.51710007      11.51489997      -0.21774520      -2.41174717      -1.09873465
O       16.41519991      13.25009993       4.28548007      -1.66375128       0.34497004      -1.24787072
O        2.65509999      16.21819991      10.69300006       0.92838733      -2.68816035      -1.79344602
O       16.65809998      10.91800004       4.31169005       0.23148125      -1.63835040       0.66772487
O        3.23415992       6.14485008       4.10350994      -1.29463732      -0.06572094       0.98994659
O        8.04196995      14.26410000      15.77269996       0.59442298       0.21255856      -0.29589142
O       13.00369996      13.49099997       0.46453501       1.36316723       0.78922219      -0.22348997
O        3.98140000       5.28616993       1.30438002      -0.70367003      -0.31632646       0.00872234
O        5.14586002       1.96408000      15.77429998       1.83113058      -0.51012047      -1.58165543
O        3.45686001      15.75020008       5.04732999       2.59488990      -1.73031888       0.51578901
O       15.70880002       7.44384997      12.44479996      -0.22464101       1.45927481      -0.47652375
O        0.74841698      16.55110001       7.92280004      -3.38137457      -3.33888532       0.05215793
O        3.99949007       7.91585003       6.24801996       2.49782641      -0.71276486      -1.14763249
O        6.53671004       5.21950008       1.96544005      -5.44885024      -1.22978401       2.33801694
Al       0.73704603       7.76987005      12.38450006       0.30230002      -4.23677936       0.82284919
Al       9.50511999       8.50897995      12.04219995       1.48267257      -4.88102217      -3.29794545
Al       6.59108996      13.03810002       2.49022001       1.62730741       0.44309158       0.14243907
Al      12.57210004       2.66297001      12.36230006       2.26106867       1.10692203       4.16169808
Al      14.02870007      10.44559999       8.38046000       1.33827315      -2.58108926       0.16846847
Al       2.09377994      10.20410002       6.83449992       0.76455101       2.19555802       2.07862172
Al       4.24299998      11.58910007      15.63430005       0.69569272      -0.01067999       1.24282195
Al      16.17649998       2.25744998       8.18046006       1.13807535      -0.72320920      -1.43417199
Al      14.14709991       7.70711005       5.81253998       1.31234299       0.45098699       0.89123035
Al      14.68419992       6.17377005       0.54133899      -2.34923812       4.98415987      -2.06559248
Al       3.24492993       1.14843998      13.49580003       2.33325318      -4.10610473      -1.63535337
Al       5.67165001       1.25175005      11.40879997      -2.21908083      -0.48748661      -1.50725615
Al       0.17406896       6.33026996      16.02479996      -2.27936004       1.03872198       2.96703304
Al      10.31359998       5.48639991      13.64100002      -1.94708644      -0.69659386      -1.77641533
Al       3.99459006      12.05390004      12.19160007      -0.82763057      -1.16021205       1.30098911
Al       6.14474995       2.22704004      14.19490005      -2.93397764      -4.39194901       3.70427038
Al       6.16870008       9.71682003       0.33956204      -1.69733048      -1.26004817       0.66104502
Al       0.80155205      16.97554007       2.25271000      -1.79499965      -0.13738225       0.23399948
Al      10.33640008      15.61910004       9.32159007       0.08543794      -3.17115737      -1.29463485
Al       0.55317002       0.54459003      12.75249992      -0.92038199      -1.14493323       0.19128711
Al      13.33530008      12.81270003      15.68740003       0.88036554      -4.96764128       4.90660122
Al      15.49789999      11.55590003       3.10990002      -0.32696198       2.62987054       3.87361168
Al       4.83074996       6.78638998       8.41500007      -1.43272854      -3.03122481      -0.26767002
Al       5.81713995       8.74874998       6.34909996       0.31652271       0.08969238       2.73104834
O        7.27607000       4.56690998      16.57749997      -2.21418569       0.73301120      -0.74497117
O        5.92247999       0.11009902       9.81894994      -1.81885597       1.86878952       1.06951123
O        7.77075992       2.66520007      14.24310001      -3.65013637       1.90732027       0.51552869
O        7.74301993       3.13589998       3.79809002       0.58357397       1.06845959      -2.12021136
O       13.99369992      16.38879994       9.97220993       2.33589034      -0.49130469       0.72109779
O       10.37539993      15.49269993       3.27897996      -0.51666033      -0.99671542      -2.97993470
O        2.35167992       1.67717001       9.16492996      -8.80456241       5.16774897     -11.49118927
O        1.23353007       3.49595007       4.65040998       0.72735514      -1.38740381      -4.02376763
O       11.67369995       1.28236008      11.77680000      -0.97546369       0.72823378      -1.74081397
O       14.02960004       1.55405997       0.88731104      -5.40421934       0.19894597       1.16212034
O        3.49075993      16.91643813      14.93390006      -2.53428311       1.58272118      -0.18495126
O        0.81458601      11.54989996       6.55830002       0.58437320      -5.77224523       6.76664961
O        2.89942002       2.33892992      14.58470008      -1.58391709       4.27115607       0.80808557
O       12.60460003       2.13275994       8.97728000      -0.98698220      -2.67923139       4.05965649
O       15.99899991       8.17559000       2.38212992       0.24373080       1.63817147       3.36899225
O        2.58851008       3.34800995       6.60699002       4.65738733       2.76587954      -0.08537571
O       13.40570004       7.66914008       1.53925997       0.58410079       2.24259085      -2.56523063
O       11.67390004      13.13359998       2.55510995      -0.31856859       0.85809486      -1.06057864
O        9.32251006       9.71802005      13.06539995      -0.34037948       4.28166165       1.77386044
O       15.33870001      16.00620000       4.93092999       3.33753119      -0.20794336      -0.71958874
O       14.03160006      11.75339999       5.43847004       0.97811724      -0.59742393       0.17644784
O        9.81587999      11.96310000      11.84479995      -2.05062499       0.92798591      -3.64233324
O        7.74692995       1.67813998       0.62048207       1.78110167       1.37123682       1.92082360
O        9.30868996      10.82439997       3.11890996      -1.06196508      -0.68430089       0.63875373
O       13.27349995      13.70779995       7.52925003       0.11777464      -1.39989284       0.15891859
O        0.28921297       2.11661992      13.49910003      -0.85378468       2.73551560      -2.25908264
O       13.32649997      14.23179992      14.97939995       0.02701841       0.59279019      -0.53943914
O       16.55209993      12.60340002      12.98260001       1.08540188       3.36390062      -0.44213202
O        8.15341002       5.39992992      11.94740003      -2.19002725      -1.80877099       2.55182381
O        8.89302005       5.50041001       7.74848991       1.55524772       3.85814478      -1.63174218
O        5.81571006      16.02519996      16.43340004      -0.25514904      -0.00717756       0.03455970
O        5.14689007      15.50329997      12.13320007      -2.53262461       2.17568155       0.94191631
O        7.64789002      13.98240000       6.68962000       0.35002659       0.88251234      -0.39118964
O       15.73449994      10.83349995       8.53718003       1.33979325      -3.14282127       0.90649794
O       10.28130007      11.21929993      15.45889996      -0.79890174       1.49292200      -1.49212787
O       12.64509995      11.16270004      17.05650396       0.36346039       0.11811948       2.85450356
Al       2.79841002       4.80844007       0.03682080      -1.28482057       2.72208465       1.44874528
Al      16.03860004       0.33331807       5.73325997      -3.83467426      -2.97852108       5.05620039
Al      13.60819998      16.66710000       8.24216998      -0.87789410      -0.43152709       0.21840260
Al       9.74930000      14.37750005      15.38649997       1.29186944      -0.19311521       0.41873773
Al       7.66544007       7.68355993       3.61834996      -1.50904424      -0.25103083       2.91470018
Al       4.90962003       8.09074005      15.02610003       1.02788994       2.03285469       0.07521293
Al      10.28649996       6.71273007      15.94219993      -3.93519712       3.14242640       1.09110761
Al       3.46183003      15.00960005      12.01619998      -1.11468239       3.89379256       0.22410572
Al       3.76523007       9.70101993       9.56132998       0.33675107      -0.14498039       0.55147987
Al       0.32874292       2.12099002      15.23580005      -4.69807575       0.93426878       1.68185074
Al       5.31163004      11.20010005       4.95725995      -7.50299552       6.53691994      -2.73153130
Al      12.11489999       5.67959003      11.40429996      -2.92902571       0.42769535      -0.01775236
Al       2.09905001       7.42098997       6.41098002      -0.01614027       0.08717034      -0.40905614
Al      16.55499992       9.50087005       9.96880005      -1.01357642       3.31122919      -2.28599543
Al       7.85703992      10.86490006       4.03958998      -0.31797434       3.23665320      -0.50995678
Al      10.62539995      10.09939995       3.93794994       1.03778995      -0.79658905      -0.69936312
Al       1.36026994       6.23460996       3.99396001      -0.35683602       1.46226346       0.24609447
Al       2.93720993       4.34912994       4.79911998      -1.13392531       0.20134493       4.01850213
Al      11.67289994      14.50370007       1.23382002      -3.26565958       0.05808046      -1.88245496
Al       9.10159006       9.67190996       6.46115006       4.74299323       1.77028482      -2.76701216
Al       2.21130994       9.98752992      14.22729991       1.10468691       5.85291086       0.37862641
Al      14.31559996      13.37860003       5.84525992       0.59857079       0.60952319       5.03163770
Al       6.30660002      14.48440006      11.60800008       4.53023939      -5.31274914      -3.15548429
Al       8.62348005      10.95569993      15.84950000       0.75688938      -0.75757926      -2.11064700
O        5.53741001      13.07380005       1.12619993       1.02985638       2.36002400      -1.02525739
O       11.99039994      11.36500006       4.69971992      -4.29565992      -1.87626943      -2.21031991
O       11.82589994      10.26900006      13.16150001       0.73827311       1.33638856       2.16906824
O       16.88418410       5.71892005       8.55523004       2.67947886       3.22955163       0.35026585
O        4.12869004       4.29729998      16.26169995      -1.08143136      -3.40454864      -1.21369597
O       10.72529997       6.75685998       0.53524393       3.18459415      -2.62015405      -2.81986659
O        7.57851993      13.50730004      10.31050007      -5.25042383       1.92362894       0.13223009
O        7.73612999       3.96242999       6.31690002       1.65974763       0.68881545       0.95395184
O        7.12167008       0.40430495      13.87040005       2.79832783      -0.03357840      -0.59394601
O        7.25671008       2.07154006      11.29119996      -0.22859334      -2.13889255       4.56141451
O        7.55291997      14.66979992       2.51520002      -1.22531702       0.05810236      -1.32811812
O       14.39810003      12.44540005       9.86070002      -1.06973865       0.22349227      -2.08550270
O        8.69895993       1.43501005       5.48997993      -5.38422984      -4.15318357       1.36159473
O       16.57001610       1.44673000       4.75681995       4.60841836       2.08290939      -1.38112298
O        9.03615994       4.70824993       1.48729992      -2.74695773       0.33073293       0.17226445
O       11.94250002      15.92409994      13.42039992      -0.11548200      -0.29358528      -0.38858745
O        0.97073195       3.99163991      15.41979998      -0.58260709      -2.52086702      -0.76115655
O       10.47500007      13.71939991       5.06092005      -1.40416464      -0.24544259       0.75896746
O       12.40909992      10.59350005       8.65869998      -0.34952825       4.41485246       1.10642033
O        2.08915995       1.15810993      12.21110000       0.26397187      -1.73546268      -0.25600948
O        5.69934002       7.80200000       0.14107208       0.42995172      -1.47438870       0.07831313
O       12.78590006      15.74700004       1.87059992       2.21489273       1.01187626      -1.40732942
O        6.03659001      12.82660006       5.24428000      -0.36022602       1.20862667      -0.09753219
O       14.43359998       2.56945997      11.85040001      -1.85527567       0.25462234       0.36794053
O        5.06540996       0.70320293      13.22590008      -1.22922836       2.53672286      -1.91169413
O        2.93481008      11.64539992      13.70529996       1.95275835      -0.68405700      -0.21420080
O       10.45389995       3.24532993       6.05014995       0.66864791       0.29003026       0.20245068
O        8.18100007       7.34154993       2.07807004       2.30713264       0.58919224      -0.16656641
O       13.12059991       3.33266001      16.36230002       0.87678286      -0.05681355      -1.66106817
O       17.02961447       6.64088995      14.20430007       2.64616014       0.82976792       2.96600679
O        1.91640996       8.66114006       7.81175005      -0.73989873       2.09454077      -4.46345993
O        5.84249994      10.28149999       8.15591993      -1.82968271       0.73591138       0.35099931
O        0.83207701       8.61771002       9.88038994      -0.08067864       2.84911371       2.00875024
O        0.56269397       5.64516994       2.43372008       0.50183998      -1.13451185       1.96437291
O        6.37266995      10.28790006       5.66543992       4.38502625      -2.91759701       0.39422638
O       13.69909997       0.96947101       3.38557993      -0.42816075      -2.67544384       2.86214256
Al       6.75959001      12.81409996      14.06660004      -0.74581724       2.03823913       1.71756455
Al       7.31912006      10.26090000       9.00049996       2.27839930      -1.06732565       0.73603270
Al       0.16668608      12.57750001       5.54007996       1.56933740       1.38061696      -3.04125504
Al       3.15562002       0.98241801      10.12010007       7.56221635      -6.42340570      12.78266046
Al       3.24093005      15.31150003       1.29351999      -0.74223279       0.18767394       3.19432550
Al       1.34944995       1.59595006       4.94561994      -0.33663703       2.16338877      -1.95214750
Al       8.40244006       1.54389999      13.16470005       3.16418613      -2.39906662       1.66225944
Al       2.31242007      12.26080003       9.99605000      -0.35211504      -1.41863806      -0.63668176
Al      10.70960000       9.69759995      14.55930004       1.47684711      -2.05529109      -0.33890538
Al       1.50369002       3.41599004       2.55222006      -0.46849816       0.18743235       0.01851050
Al      11.17330008      16.17920006       6.56615993       2.37527293       1.02869587      -1.56781124
Al      16.72920000      14.86030005       3.92898004      -1.88748565       0.97982729      -2.81325719
Al      13.76079997       1.75072997      15.20189995       1.05297632      -0.42724043       2.29571362
Al      14.45339995      16.37029994       3.41314003       0.00274948       0.79831404      -2.23180226
Al      16.52369994      12.10259997       7.90314008       2.60234339       2.05480057      -0.77295769
Al       8.06960998       2.09810006       9.82250993       3.13039846       1.41089916      -2.10317579
Al       2.22148995      14.79450005       9.32209996       0.75419363       4.34045953      -0.89096759
Al       1.11706007       7.12200008       9.28829999      -0.42031510      -4.41875566      -2.78349330
Al       5.49826997       5.07317008      15.66600004       1.06388988       1.30521088       2.80230251
Al       6.80783996      14.66180000      16.88073913      -2.30998917      -1.02574215       0.58162098
Al       9.50990995       4.70124001       6.06240991      -3.28533248      -4.57648459       4.56476841
Al       4.20262998      12.15540007       7.76686993      -0.77246134      -0.90493200       0.41476991
Al       4.16392007      12.24909993       1.83903002      -1.49868701      -0.18286325       2.50915778
Al      10.14419996       2.02849000       4.87896995       1.06451084      -1.27918875      -0.69388489
O       12.61030005       1.62793007      13.95859997       3.15725617       4.36340331       1.25953763
O       15.90610007      10.61450004       1.88583005       0.16474020      -1.58406457      -3.37983551
O        3.02579000      11.95390007       0.43203707       1.90765221       1.92358251      -0.91077955
O       11.25480005       7.59290007       3.12498004      -1.91420426      -0.88244746      -0.16627087
O       14.73049999       3.27100006       7.94312993       2.87791077       2.35083481       2.51499771
O        8.39280007      15.62959995       4.71860008      -2.63751274       0.79211055       1.57421422
O        5.97206996      12.62159997      15.84299997      -2.26398331       0.02099654      -3.68519420
O        1.16295996       7.97192993       4.75509002       1.02872564       1.01206200      -0.13757104
O       13.16459992       9.26650992       3.79875002      -6.16262568       4.07402078       7.62646678
O       14.80419995       4.99267004      10.25310000       1.26694738       0.77421167      -0.24656273
O        7.75715001       0.38070108       8.14460992      -2.20008722       1.36662954      -1.43155438
O       11.05460002       5.37310993      15.20080006       1.35316398       1.50357510       1.67320519
O        2.18005994      15.26489992      13.21250001      -0.72515461      -0.77908421      -0.12591328
O       15.30070008      14.67040001       2.45746002      -0.87276968       1.11781412       0.95148354
O       14.37870006       5.35327007       2.12188998       0.70423080       0.14250242      -1.84629683
O       10.60020000       3.59154999      16.88759997      -1.75329262      -1.94102203       0.47085675
O       10.61519992      14.49909993      16.87550004       0.08899514       0.41921893       0.77981785