360
Lattice="17.36547874 0.0 0.0 0.0 17.36547874 0.0 0.0 0.0 17.36547874" Properties=species:S:1:pos:R:3:forces:R:3 step=0 confid=0 wdir=cand0 selection=->scf energy=-2375.32394231 free_energy=-2375.43695956 stress="0.05882124122678998 0.006697553453652293 0.005458680233164966 0.006697553453652293 0.06939808494676544 -6.582269309818156e-05 0.005458680233164966 -6.582269309818156e-05 0.05765733530918342" pbc="T T T"
Al      16.92230009       7.10636008      11.45240004       4.97043738       1.02339534      -1.02715520
Al      14.80090004      16.66390003       9.15949001      -0.05157602       0.08776169       1.10866998
Al      13.26920004       4.71762005       7.74304000      -0.01165959      -1.78835184       0.87542460
Al      17.29497299      10.16650005       7.37674996       3.61408573      -1.14401386      -2.30674665
Al      11.79150008      14.81699992      16.77850003       2.89088039       2.44246660      -0.32827048
Al       6.14133004      13.32539994       6.25774994       0.49700232       3.17276049      -3.90495726
Al      11.44410003      17.31147071      11.83000004      -1.68104463      -3.81589127      -0.54222698
Al       2.70084006      12.67599997      17.03790000       0.08919250       2.01815916      -1.27157482
Al       1.14803996      11.45870006      11.82920001      -0.08214288       1.54408790       1.42418296
Al       8.70462995       1.96251999      14.37830000      -3.26696268       2.68330321       0.98770235
Al      12.28060000       1.64672997       9.22840005       3.20224261      -2.00476441       1.33937904
Al      16.40759997      15.63999997       2.67097994       0.34622426      -0.65898858       2.34157231
Al       6.33398995       2.56137998       1.05179006      -2.49220055       2.67812093       0.61837610
Al      16.54610009      13.99190004       5.90376004       0.91279477      -2.39168096       0.81703877
Al       6.56747993       9.54672994      14.87080008       1.77593787       1.24581529       5.79646185
Al       4.91080006      11.94930001       9.58645000      -2.64810606      -0.13946928       0.71055912
Al       9.86740000      13.16430004       7.13678995      -4.38181014      -0.23235789       3.45485719
Al       0.50157407       9.48773993       2.55140004      -0.78043537      -0.74064944      -3.20593886
Al       6.99487996       5.23614004      16.08939998       3.41930782      -1.66697663      -2.75690126
Al       2.30442994       8.00334002      13.13310001      -3.18884300       2.50564921       0.70764025
Al      10.99379997       8.62575993       9.49179998      -2.35410703       2.04604836      -0.81186932
Al      16.25940003       1.01026000      10.57500002       1.28172017       2.28668421      -0.49710402
Al       3.50972996       2.81418992       2.28970992      -0.76734038      -1.41893635      -2.96016567
Al       5.05859001       7.62912003      16.69939993      -1.65162630       0.52497003       0.44070458
O       10.22409996      12.39320003      13.51340000      -0.27396806      -0.36058725      -0.37727931
O       11.38309997      10.57599992       8.49653004       1.98703755      -1.24542673       1.96041482
O        2.29265997      12.65249997       1.55251999      -0.24114519      -0.39960160      -0.89981182
O        1.46316991      15.83090007      12.16560007      -1.14212262      -0.95653419       0.22795024
O        6.58123998      15.30039997       6.77448998       0.95230752       1.84815010      -1.43972884
O       11.62020005      10.22349998      11.33199996       1.62051995      -2.27380185       0.70458343
O        3.51174002       6.98934002      12.60710001       1.76045368      -2.32991391       0.60478349
O        3.98022000       6.21605004       3.80722006      -1.40008139       3.78166361       1.62838991
O        3.87982999       9.21574999      13.72000005       1.16147556       2.37907386      -0.69207870
O       15.97949994      12.71589994      17.08325967       1.72695102      -0.58637152       1.10420886
O        0.53244503       4.94481000       1.43269992       0.75864671       0.09887702       2.84387301
O       16.99839996      10.78620001       8.79755002      -2.30228407       0.39415015       2.48323319
O        4.09627002      12.03770002      13.04340002       0.20407706      -3.15368053       2.29181023
O       12.00050004      14.15190000       1.06911994      -1.63240874      -2.40071699       1.49689683
O       14.19780009      14.53079999      15.95510005      -0.71002272      -1.08505406       0.65355048
O       15.49930000      14.27000002       4.51629997      -1.50895276      -1.39314025      -1.68877695
O       16.61560003      16.88540001       9.46025993      -2.08572397      -0.63400389      -0.03793424
O        6.58555999       4.26277006      11.21710006       0.35095618       1.15649549      -0.19726464
O       15.99619997      16.41249999       4.67082008       0.83683295       2.98498307      -3.17133862
O        1.13983998       5.43962994      16.18659995       2.58569504      -2.03621368       1.12718679
O        2.23653995      17.00210974       0.05321581       0.54774217       1.50079323       0.74753254
O       15.09799993       8.54631999       3.78107008       1.66306182      -1.23518607       1.85762053
O       14.47339996      11.09710008       2.99327993      -0.10176890       3.79683530       1.43821117
O        3.22196001      17.09450277       7.32465005       1.26502860       1.10753407       5.04528969
O       11.45500000      13.93110002      10.07170000       2.14819885      -0.11205492       0.07613692
O        1.95922002       9.30941001       1.30188004       2.69524642       1.49175828       4.84017785
O       16.05119992       5.29906993       0.07633396      -4.45545571       1.87039110       1.09610268
O       15.97479997      16.30430004      13.28329994       4.08172620       0.55230035       0.89597412
O        1.34811997       0.63205498       5.03927004      -0.12581556       0.32217781       0.64293602
O        5.12709005      10.62340004      10.85019996       0.91705998       1.92421060      -0.40261433
O        7.49211995       7.36270007       1.74399002      -0.07388300       0.34606916       1.23980656
O       12.02190004       7.89475004      13.14840004       1.95655513       1.47899727       0.42453689
O       10.81279993       2.02231002       8.71726003      -2.58281105       1.23610774      -1.60879523
O       11.62119996      12.81669994       7.33917002       1.45040375       2.50269152      -1.05818211
O       16.99400007      13.51169992       7.52459999      -0.37377513      -0.60042140      -0.19142646
O       13.69949993      12.66269993      11.08780000      -1.18546429      -3.18280925       1.28411855
Al      10.74970003      14.04199996      13.71170005      -2.66586459       2.50216701       0.93127391
Al      11.76710002       7.06085992      15.20250000       0.33180438      -0.06836781      -1.20983964
Al       0.54080807      15.88530003      10.16049993       2.15084886       1.96189312       2.36192314
Al      14.83979992       7.18952006       9.57222993       1.51588254       3.43639254      -0.11757875
Al       5.34560004       1.33066992      15.11949996      -1.48828592      -3.06274754      -1.25626770
Al       7.59558000      14.65190006      13.25530001       0.93807322       1.15649857      -3.23559076
Al       1.93579000       9.07261000      10.62960004      -1.90156634      -1.62436531      -3.98465595
Al       6.38576999       1.87285004       7.84004999       0.08472445       8.93045846      -1.58453000
Al       6.67686004      17.14006475       5.74318997      -2.92265595      -1.72035843      -1.98437984
Al       7.46774993      16.29359995       8.04496004       0.65378545      -3.88098925      -0.84766545
Al      13.82729996       8.39363002       0.72200399      -0.41473003       0.25759014      -0.14295468
Al       4.45037002       3.80273004      15.80229999       0.30925473      -1.72296473      -1.35596487
Al       2.25221003      13.78470001       6.06164993      10.22420583       0.97036466       6.95469053
Al      12.31170001       3.21815993       1.33945008       2.35740864      -4.26824375       0.85578240
Al       8.77686999      13.32899997       3.71928006      -2.96605688       0.42933317       2.10434736
Al      15.76090000       9.92932009       4.75251007      -0.55263647      -0.03116479      -0.15972186
Al      10.00340000      10.10310008       3.98698993       0.26379130      -0.19560712       3.18779655
Al       2.93547998       6.19959000      11.16940004      -0.35312524      -0.80628110      -2.10676249
Al       7.95919003       6.08309004       0.78489706       0.07184211      -0.76197266      -0.98324456
Al      14.45259994      16.20340000      13.79569999      -5.28182697       1.82031873      -0.02268879
Al      11.08180005       5.89262998       9.87178999       0.79305834       3.03993678      -1.99947175
Al      14.15649994       9.21383996      15.23640002       0.12320617      -0.76754523       0.70375044
Al       2.70397001      14.37350001       9.38344008      -0.35446322      -0.92964652       0.31562957
Al      16.05949992       6.91366005       3.45676004      -2.85458014       1.98280859       0.85193942
O        3.72876995       3.96216007       7.09133998      -1.83021547      -1.78481102       3.23585215
O        2.16365009      12.89450007      11.56809997      -1.97731318       2.67571212       1.89666544
O        9.34906998       3.78143007      14.81320001      -1.91459414      -4.79047633       0.98402941
O        0.87885003      13.41369992      14.04619998       2.21611883      -0.02968849      -3.35877230
O       14.33900001      10.18479997       0.42422093      -1.33084199      -3.53331999      -0.61854460
O       13.39319998      15.03879998       6.15974995      -1.84007223       0.23734776       1.30771165
O        4.61887993       3.39203994       0.62046803       0.50432780       0.23556962       0.01055893
O        4.73373000       8.24200005       1.23597006       0.79306234      -0.62136930      -1.64226198
O       15.14509998      14.50159993       1.77625005       2.66212139       2.11403115      -0.73748351
O        2.40720006       8.79522999       4.60449993      -2.01097932       1.98995034      -0.58882261
O        0.98410793      13.89940003       5.18186007      -4.75516511       0.69804115      -4.03942484
O        6.64712999      17.26066366       3.68294992      -0.82327341       0.17155573       0.80375172
O        8.78636005       5.30695004      16.77320009      -1.17844441       0.32131736       0.14511703
O        5.90490008       5.57755004      13.48979997       1.62146461       0.17737674      -0.11423965
O        2.89664000       7.74249004      10.21410005       0.55314991      -2.88857068      -0.63371934
O       12.74299998       8.20369006      16.07570000       1.82929986       3.30089088       0.42686408
O        0.28467507       4.95430996       8.92332992       0.75979143       0.94651576      -1.11633567
O        8.16342004      16.25060007      12.43270007       0.82762248      -5.66897632       0.31186458
O        8.87129999      11.61569996       3.82029002       2.29162431      -2.67383973       0.69198677
O        5.51079992       9.59538992      16.62050005      -0.03295986       2.00239906       0.68739425
O       12.62629997       1.98724999       2.83378999      -1.35403051      -0.27616916      -1.23648244
O        1.52322999      10.87849996       6.68427006      -0.35631087       0.56148232       1.53307175
O        1.02397994      12.16770008      16.74620007      -1.78283743       3.27367102      -1.39396989
O        4.33927992      16.99470007      15.34309995      -0.70213083      -0.83969824       2.15658181
O       11.44360008       3.93253995      14.08510004       4.17594547       1.57354663      -1.80733184
O        0.27809008       0.16739505       2.42408000      -0.47010741      -1.68001378      -0.99113476
O        6.70019004      15.74920000       9.37157008       0.56101046      -0.51263372       0.48666365
O        7.26779999      10.71349996       0.57360295      -2.76653851      -0.60760023       1.46149000
O        0.62779297      14.15010007       9.61440998       2.04060973       1.00204450       0.88038650
O       12.64250005       6.25465003       0.05919562      -2.46501760      -0.44704017      -3.49215913
O        4.20190006       9.78509996       7.67289997       1.17752072      -1.13223647       0.25856491
O        2.30954998      10.19390000      11.74160003       0.99291219       0.77540737       0.63570932
O        9.21892996       9.91636996       1.73934997       1.51053472      -1.78141673       0.73921722
O        4.43580003      13.57970001      10.32810007       1.96306254       1.40279121       1.65640297
O        9.04813005       9.47371001       5.57458992       1.88958557      -1.29811121     -10.17147556
O        4.17601004       1.11847002       1.82786997       0.99015243      -2.10169203       0.22275304
Al       8.06137007      10.99560008       2.44783997      -2.47375993       1.90916964      -3.84137727
Al       8.14583003       0.99141793       3.52116999      -1.97077112       0.45379466       0.05088767
Al       5.84294995       0.37238307       9.98044006       1.66678586      -1.77199754       1.15720607
Al       8.95618992       8.18562007       2.07377991       1.68539874       1.15425287       1.22900189
Al       8.50517006       1.91254005       5.91734992      -2.26856594      -1.68153069       8.02529866
Al       6.17137995      15.15170007      10.80970002       3.31765899      -5.22773847      -0.41982791
Al      17.18233268       3.95519999      10.34639999       0.61632432      -0.64187121       0.21483538
Al       5.80926996       9.61872999       1.27375995       1.49249781      -0.79915399       1.44707312
Al      13.72439994      15.38039995       4.47419997       5.22841068      -3.60695480       2.32185706
Al       6.22978006       9.24816995       4.41624008      -2.40687197       1.36235884       2.07027738
Al      16.84910008       4.51626003       5.09126993      -2.07403406      -2.49104240       1.37932820
Al      11.66510006      13.07269992       5.54001994      -0.05812439      -0.17434503      -3.17792756
Al      10.90720006      15.64360001       9.03841997      -1.42718680      -1.96386667       3.00368334
Al       5.05787003      10.53640003      12.66969995      -2.65173744      -0.69779016      -1.48738433
Al      15.95020004      10.77299999      17.19048681      -0.89474027       1.34452554       3.04942591
Al      13.21270006       3.60642998      14.28750008       2.10309259      -2.58038674      -0.03213947
Al       1.77037999      13.37249998       3.46938006      -1.43094131      -0.74998688      -0.53442421
Al       0.16560901      17.26219582      13.44149997       0.62580060       0.12026575      -4.34541839
Al      12.86989996      12.04149994       2.98048001       1.79711609      -5.47557460      -1.04653305
Al       5.60689996       6.49913999       4.79680003      -2.88245370      -3.65655576       1.79169277
Al       2.68272995       0.28421193       5.97467006       1.30030729       0.46141473      -5.89187341
Al      13.42819992       9.03609995      12.27679992      -1.34780348       2.01139236       2.59456961
Al      16.65970001      17.23728070      15.61700009      -0.47654490      -1.77777221       0.40839308
Al       8.93001997      15.10870002      16.20210003      -0.77336109      -2.41666707      -1.33284652
O        4.72763003       1.63461998       9.07604992       1.86478851      -0.00080599       0.34987664
O        3.29343997      15.69249998       2.59577995       2.13273090       2.34610592      -0.88124871
O        9.73370005      14.29580008       2.60472005       2.92862089       0.33395738       0.64060964
O        9.16441000       8.48230997       8.33341002       1.73709383       0.17655928       1.35995356
O        0.16703698       0.24270392      11.52929993      -1.21609871       1.67141015       1.56274166
O       14.52589997       6.20831008       8.11927994      -2.72528978      -0.46249240      -0.53883382
O        3.41191005      14.88160002      13.92599995      -1.51405404       0.32346095      -0.53277261
O       10.50410007       8.36681008       3.38691001      -1.31676720       1.51863489      -0.66943063
O        9.64057993      13.87530005       5.51545995       3.92592102      -0.91191758      -1.09224806
O        9.54248008      14.59720002       8.43786007       0.76540703       1.34793299      -2.31999195
O       10.07310000       1.14921005      13.82570007      -0.80026719       0.44614477      -0.42312016
O       14.29140002      11.96969993       9.02955993       0.19850613      -3.79958310      -0.94215489
O       13.62820005       5.16248992      13.74400001       0.63222698       2.73979276      -1.13028602
O       16.66299997      15.38770005      16.37719997       0.98767874      -2.16218065      -0.48282820
O        2.52684004      11.50169994       3.75557999      -0.84092623       0.41666521       0.97499082
O        0.86587698       6.89409992      14.35179993      -0.10564892      -4.50572911      -5.65723428
O        5.80586997      12.37979995       7.63506007      -1.01631494      -1.86151852       3.08408039
O        2.83612999       6.66572009       0.49741295       1.08387643       0.88407126       1.20019055
O       10.20660007      15.44029992      17.35704329      -1.03040936       2.29374540       0.51590055
O       16.61760001       4.49095001      14.62109995       0.65710735      -0.80967719      -2.90116031
O        6.43476999       3.83576995      15.40220006      -2.24755213      -2.19519710       1.70793243
O       14.69860000       9.03966994       8.55120993      -2.70651448      -2.61042125       0.53928085
O        6.44848003       0.31107199       7.98223992       0.78320867      -4.39403304      -1.00868197
O       16.70009993       3.11781993      12.04000008       0.02883223       1.47781441       0.15151181
O        8.47357999       0.00092818       1.37899996       0.74160253       1.17412071       2.12957170
O       12.31959992      16.65210001       0.07460296      -1.20171542       2.66347490      -0.60114136
O       11.65359995      10.56740002       2.41953007       1.61791795       4.64698814       0.90223005
O        6.59225004       2.60040994       2.82803993      -0.39679710      -1.69904443       0.93631290
O       17.23458280       3.02008007       3.84380999       0.67055740      -1.52855420       5.63905220
O        0.24866601       7.47870008      16.75399995      -1.07569842       2.22180450       1.73469563
O       10.22209998       6.68432997      14.18609992       1.88419187       0.74245467       2.37658338
O        6.55121004      10.39480001      13.53679998       0.87460441       2.62418493      -3.54147187
O       12.47219993       7.42798993       1.93753992       1.21812073       4.57115167       0.73558308
O        4.05241993       3.48303002       3.76201998      -4.03959401      -0.17028969      -1.92177494
O       13.84840005       8.01051995      11.00419998       1.84774815      -3.08325724      -1.12948737
O       16.93320005       7.20315995       9.83409006      -3.75990595       0.44813647      -5.59011205
Al       5.23930004       4.82906005       6.96917992      -0.71205024      -0.04059911       0.06541607
Al      10.83899992       2.57353998      14.82949994      -2.12790421      -0.27541931       0.95756928
Al       8.06875995       5.44469007      11.19850007      -0.40967176      -0.20487932      -2.06149831
Al       0.24962303       5.19037002      13.28780003      -0.19969568       1.21540225       1.27992927
Al       3.46663996       8.21836007       2.48597994       0.79703326      -0.82945213      -1.49279648
Al      13.23320001       7.96756001       7.47515006      -1.34247098       1.58417783       0.53192182
Al       3.13321999       3.35545001       8.78098005       1.14721762       2.05841311      -0.30673084
Al       4.89828997       6.83938998      14.04500002      -0.03085494       0.84749592      -1.70513812
Al       1.62491007       7.67279004      15.68959994      -1.36600005      -3.44332087       2.09419598
Al      14.22359998       6.61983007      12.87599993      -0.43557998      -1.35914076       2.17614490
Al      12.26020008      11.37349998      10.30640000       0.00813094       1.93641529      -4.40621107
Al       3.21784006       0.72790304       8.89264008      -2.55362036      -1.29244399      -0.63613557
Al      15.47709997       2.13300002       7.46659999      -1.88335145      -0.59273755       4.01105463
Al       3.11287998      10.94100006       2.12939998      -0.29874432      -0.74365554       1.21872913
Al       2.76164997      10.54859998       8.15833004       0.56441394       3.20912981      -0.21137308
Al      17.09007770       4.45640001      16.35719997       0.45797749      -0.32461432      -1.81517002
Al      15.85459995      12.51740001       3.78621999      -3.94798771      -0.45498474       0.38752368
Al      12.52790005      13.75689996      11.54830002      -0.92489619       5.44280871       0.21064659
Al       0.39489203       1.14352997       0.92026792       0.02505603       2.36168018      -0.35473514
Al       5.50650006      11.42019992      17.22228074       3.76932491       2.03629858      -4.79434667
Al       1.94887003      16.00340005       1.42760003       2.24437347      -0.66035886       2.33629666
Al       1.63075998      14.30390004      12.91730007       3.79716849      -0.39417808      -5.20472788
Al      12.46450008       0.52762194       3.70813004      -0.90308205      -0.66661686      -0.28748498
Al       4.95162994      15.72819993      14.23640007       2.06901354       0.65887512      -1.09680912
O        1.02692999       5.23609993      11.42050000      -0.56089474       1.22391648       2.51461013
O        2.84673005      11.82380004       9.41260992       1.73037899      -0.14651724      -2.39315347
O        7.32434998       2.32590999      13.37900005      -0.23837093      -0.69513150      -0.76005475
O        9.35323006       9.48522992      12.83959998      -1.02813389       2.32603267       1.54937363
O        3.09499996      14.23439992       7.72309992      -1.92772573      -0.83959840      -1.47969939
O        3.89152008       6.67700001      15.40840005      -0.93798914       0.36876887       2.42341810
O       15.25689997      12.62839998      14.18950008       0.54668851       1.42413685       0.52565668
O        0.52872795       6.73558992       5.99447001      -2.83236216      -2.54916379      -1.15085183
O       14.92349997       0.26783594       7.80992002      -0.79636991       3.95942433      -5.30241635
O        1.60059007       8.88824001      14.43700000       1.83448813       4.21233468       3.63059228
O        4.25030008      17.32245559       4.98680007       0.46408857       0.72299986      -1.61513554
O       15.98960005       9.50448997       6.56262002      -1.30075829       0.49352625      -1.60599313
O        9.45147004      13.24510005      16.93199992      -0.66530104      -0.91941198      -2.45457535
O       17.30935803       7.71369009       2.37762995       0.15260768      -1.14541904       0.35451197
O        7.31193001      13.41999995       4.77589008      -1.81819514       0.14788835       1.10969476
O        0.66953402       8.27358004      11.82269994       3.28520650       1.10068681       0.87045525
O       13.93390003       3.19058007       0.57577606      -1.11425229       1.73724744      -0.89988253
O       14.22899995       2.36486997      12.96810000      -0.84166161       2.64545989       1.22165622
O       17.10751369      10.44890007       1.13073995      -0.17150011       1.79978208      -0.00569588
O        6.01607996      14.21160008      13.83619994      -2.45966273       1.70665744      -0.67835051
O        8.93867006       5.46140000      12.58819994       0.60293229      -0.39001215       0.71971398
O       11.05709992       3.31447999       0.08470325      -0.67366746      -0.56976671       0.99267040
O       15.90320002       2.22910995       1.65135996       3.88863048       0.18261028       1.57660752
O       13.73920002      11.76170005       6.44889003      -2.12122185      -0.85234757       0.70799362
O        2.31914006       7.06450007       7.12865006       1.74255681       1.14468819       1.50564969
O        4.48845008       3.83103004      13.86119998      -1.47471814      -1.62488678       0.60620029
O        8.17881992      12.85490000       1.66756004       1.12914398      -2.39997497       1.12683602
O        5.92086000       1.07177998      17.03081575       1.83668373       0.54137151       0.88008408
O       14.21309994       8.01953993      13.95899992       1.26146053       1.50056510      -0.83582250
O       12.65060001      17.18208869       8.81360996      -1.15078841       0.62493322      -2.92411910
O        1.02404002      16.82270004      15.15300005       0.79310590      -1.27487844      -3.06995087
O       12.69929993      13.48030001       3.83682004      -2.24263545       2.37590940       2.24275191
O        2.97667002      11.23949996      16.06130003       3.03104964       1.23546615       1.50947155
O       10.72710008       7.33259997      10.92080001       0.22616775       1.08955622      -1.11995264
O        1.77263994       2.30365006       1.72481992      -0.37746783       1.41559778       1.05725944
O        7.17188003       9.67806992       7.77429995      -0.66711443      -1.88534634       0.98107946
Al       2.79606001      10.33999994      14.70550000      -1.28441096      -1.97742136      -3.80635193
Al       8.94311006       9.82651003       7.03297999      -2.24756885       3.26286327       9.71991554
Al      11.24610006      15.16099998       2.85129005       3.41995482      -2.56229100      -0.73153234
Al      16.76740002       6.90647005       0.79603198      -0.27378732      -0.63413365      -0.96784662
Al       0.03352041       0.82906199       4.02592003      -1.26032690       0.22787183       0.53294308
Al      16.23870003      11.15729995      13.98749997      -0.33836877      -0.11162824      -1.74758656
Al       0.46432303      12.53900007       0.99950608      -2.51160431      -2.70940226       2.26198015
Al       5.91997002       3.52204000      12.95399993       2.07936325       3.75529013      -0.14671834
Al       9.03228006      11.13070003      13.69529992       0.43815253      -2.62634786       1.40769999
Al      14.43279999      10.55199996       7.52374006       2.26205584       0.61723053       1.04966576
Al       5.73126006       5.28625994       9.83329003      -0.91034159       0.57818550      -1.04773363
Al       4.70466002      17.11538771       3.20804002      -1.74810144      -0.84693909       1.32689947
Al       2.43072004      15.63229994      15.21619998       0.84893998       1.42807112       2.57907289
Al       0.40263009       6.52163992       8.02839997       2.18175802      -1.44706178      -0.73879345
Al      12.93889995       0.59839807      16.26210001      -0.29121008      -1.62725694      -1.97354953
Al      17.35154329      12.30230008       9.28143005      -0.08539370       6.32292938       0.35757941
Al      10.08119995       4.93910006      13.75189992      -2.01083335       1.90074380      -0.37060956
Al       5.78535995      10.58579996       7.21989002       0.29226725      -1.03178574       0.33588003
Al       8.02843001      11.90860002      16.86039997       0.62792444       1.87305393       1.00579380
Al      13.12510008      14.26260006       7.83793002      -0.29788956      -2.89533167      -1.33545812
Al       1.86110003      10.33560005       5.16680993      -0.10426102       0.37776888      -5.95548063
Al       0.15774106      13.50110003      15.37110005      -5.79249164       0.16513983       9.41736376
Al      10.27039997      17.02558683       1.08294008      -0.07429688      -1.43526948      -1.25215613
Al       3.87878997       7.57086996       8.01628998       1.14714775      -0.16520771       1.09186623
O       11.25049995      11.28229996       5.14446004       0.58453779       1.08795049      -0.33178013
O        5.99452992       4.76064997       5.42380999       0.16507502      -0.17227486      -3.63791034
O       13.58600003      14.76129997      12.91290001       1.22418592      -2.01967689       0.86528599
O        2.50976995      16.68709996       9.52875007      -2.44591919      -4.46407689       2.55772881
O        7.43081008       0.95944600      10.51510006      -0.94464065       0.19612311       2.04429955
O        4.62589003      11.16110003       1.20830008      -1.96556633      -0.22308263       2.59230260
O       15.80600005      11.94330007       5.43023000       1.72165529      -1.14511984      -0.81525177
O       13.99800001      16.98560004      15.33950008       1.74969002       0.60323937      -0.19047921
O       11.56650009       5.03580997       8.31180007       1.35954802      -1.49719834       0.36335587
O        8.79357002      14.71470006      14.44499993       3.01636090      -1.63240224       1.54643958
O        2.96632002      14.55390007      16.64240000      -1.66927089      -1.91262033      -0.11205212
O        6.53673000      12.78450001      16.49840007      -1.92519124      -1.61899206       0.30792504
O       12.17479996       1.65839992      14.91449996       4.10472613      -0.96865499       3.40536618
O        9.91423001       4.78797993      10.22990003      -3.38413917      -3.87030608      -0.96416008
O        3.87115003       4.88819003      10.42050005       0.77685119      -0.40808546      -1.75529551
O       12.28309994       4.66618992       2.13949992       0.75641728       0.67830087       1.90511767
O       15.48389994      10.44810005      15.57779995       0.15686957      -2.18703928      -3.05592489