360
Lattice="17.1552696 0.0 0.0 0.0 17.1552696 0.0 0.0 0.0 17.1552696" Properties=species:S:1:pos:R:3:forces:R:3 step=0 confid=0 wdir=cand0 selection=->scf energy=-2393.10652471 free_energy=-2393.20905058 stress="0.05217845848871346 0.0018463954108398385 -0.006837065338358482 0.0018463954108398385 0.03938708281643152 -0.0037212857762354387 -0.006837065338358482 -0.0037212857762354387 0.06512972992197091" pbc="T T T"
Al       7.47677000       2.42691001       5.55699995      -1.70105700      -1.49574879      -4.08741026
Al      11.28999992      12.57540001       3.20146992      -0.02332634      -5.95089312      -2.43392910
Al       8.69557007       3.02757999       1.59161994       2.12098914      -4.11290974       0.66286381
Al       9.36667993       6.61044999      15.94180001      -3.35238467      -6.05115824      -4.57771133
Al      16.54700001      14.08169993      17.06534734       1.73931018      -3.90262446      -0.83702905
Al      10.36120007      15.33240006       4.51740004       0.70296332      -0.68958878      -1.02209757
Al      15.57940009      11.34810002      16.67930008       1.50450308      -0.27116807      -1.35904356
Al      14.56140004      12.42969997      10.82139996       1.64582806      -0.91045831       2.18388423
Al       8.07763006      15.17340005       1.93962007      -1.04174809      -1.08646726       0.11517812
Al       6.59914003      10.44949996       1.02859994       1.73923963      -1.32473972       1.08832312
Al       1.03486007       9.30243997      14.98479999      -0.70919576      -2.21739331      -1.62957932
Al      12.98350003      12.89299998       0.30894102      -1.74288771      -1.71796023       1.30804895
Al      10.38380008       3.12942997       4.38554001       3.09173642      -0.36132881      -3.07467934
Al      11.39690007       5.70942006       4.90569002       2.90545935       0.23250531      -1.19560066
Al       6.18424996      13.95480000      12.01970000       3.30243948       3.26522316      -2.53565483
Al      12.44570000       7.96954002      10.83750001       1.39695592      -4.55878902       2.39110511
Al       2.19384007      15.90289992       8.67284003      -0.82439823       4.32066769       0.24304487
Al       7.78846992       8.98768005       7.20603994       0.97542722      -1.47952379       0.32781912
Al      11.14900008       5.30022004       8.33339008      -1.95039682       2.33061764       1.06387260
Al       6.34626003       1.73356006      14.21110007      -3.72548167      -0.17786745       0.56974701
Al      12.69659993       3.84159994      16.62050005       2.82156198       2.21619645       1.52457712
Al       9.02598005       3.64394996      10.63999997      -1.83640086       1.52589844       2.76969393
Al      13.33709999       6.62419993       2.72564004      -2.68963166      -2.54362982       1.70458689
Al       9.16396006       1.62632007      13.12080000      -2.54195965      -1.54252134      -0.95866430
O        7.76220006      11.11630007      14.00780001       3.84751041       0.53095476       1.03170480
O        6.71085000      14.47749997      10.38130005      -3.28750409       0.01442158      -1.46402828
O        5.23744994      10.11009994       0.02446753      -0.13220506       1.79978814      -2.32993293
O        3.76109008       6.41287995       3.68869999      -2.30719559       1.45000433      -0.30523146
O       12.37109997       0.40250208       6.78449002      -1.42575445      -3.02235558      -0.35844916
O       16.99885660      10.11719999      16.90210002      -2.59997638      -1.79884150      -0.39731895
O        0.64154104       5.55314001       3.55401998       0.06548436      -1.24145414      -0.74405987
O       14.14259994       5.21799998       2.07194004       1.58624188       0.95794489      -1.94040177
O       10.40869993      11.39519998       2.20920999      -0.14259045      -1.53715562      -1.38670556
O       16.58939994      10.18630004       7.55844006      -0.48677695      -0.79656895       1.15614851
O        0.28256702       7.58463993       8.21558004       2.63102757       0.70679779      -2.60537870
O       13.63640009      11.63949994      12.22410006      -0.93796620       0.60740866      -1.79482016
O        9.06534007       8.22358006       8.44421998      -1.52514774       3.43370596       0.16669715
O       15.31599996      15.30449993      16.65049998       1.98100946       1.24176569      -1.47508133
O        3.75898994       7.00048001       0.22658200       2.57847933      -1.44419485       0.22475817
O        0.23275395       6.43468001      10.72319994      -1.12387116      -2.14093912      -0.76865557
O        8.42735001      10.63439997       7.64708992      -1.41506992      -0.32537037      -0.57041577
O       15.84679996      16.48990007       4.16302004       2.00603360      -2.09482560       0.18182021
O       10.02699998       2.93514997       2.70497000       0.80182303      -0.30152740       1.18573998
O       15.55579993       1.86983998       9.00486003      -1.79177738      -1.55941718      -2.79389954
O        3.08552003       8.54380993      14.99789992      -1.36869904      -0.12413158      -1.04542251
O        9.32713000      14.16940007       0.84603202      -0.06209714       0.27040093       2.08328591
O        4.64958002      10.34019997       6.98578001       0.81050590       0.53980927       2.74390154
O       10.90479996      10.88789996       4.95505001       1.05708594       0.88825237      -0.71750979
O        1.45434004       3.07653993      16.43540001      -0.95267039       1.65388879      -0.69394399
O       16.68700005       8.15898000      15.20429995       2.31600630      -0.22061149       2.62205968
O        2.63066006       5.86129995      11.71269993      -4.51827716       1.98004769      -5.57376412
O       12.59150006      13.23089995       2.12439999       1.00675717       0.15119168       1.63080887
O        1.18505000      17.10062012       7.99780007       0.73633170       1.09047705      -1.59033980
O       10.71940004       4.07571001      17.11879733       3.74497036      -3.59452560      -3.39632600
O       10.22340003       6.84199998       0.15106604      -2.11563150      -1.58095671       1.85566759
O       12.94610000      12.09690009       6.70154996       0.53902279       0.29612054      -1.19861265
O        9.31169009      11.31900005       9.80056998       8.07950994       3.09228513      -1.09900319
O       13.26650005      17.07621023      16.35120006      -0.32867894      -1.42539519       0.80770375
O       15.63369995       7.25019006       0.82038506       0.78052149       0.82677969      -0.72153834
O        8.91940002      15.52520007       9.68577000       0.32796676       0.46431298      -3.05914563
Al       0.12151403       3.87518000       2.93910992       0.19876799       5.31092987      -3.19736716
Al      13.22020004      14.46189999       3.48247993      -2.43963350      -0.53597182      -6.81646370
Al      10.00429996       9.62280004       1.72069996      -2.61065727       2.68265146       4.55597932
Al       1.35697994       1.03123997       3.63219997      -0.01436533       2.19353758      -1.11195146
Al      12.27159992      10.41689997       5.95673008      -3.55470617       1.41820214       2.68643833
Al      10.14890001      13.10559992      10.80989992      -2.16725809      -2.91666032      -0.29582405
Al       3.12358002       0.73455708       1.94467007       5.60872746       4.20875092      -3.41731270
Al      16.79060003       7.78789008       3.66454006      -0.11330295       3.91325566       1.21954771
Al       7.81565005      10.78649997       9.80815999      -5.42188096       0.59274571      -0.06827136
Al       5.36622992       6.65347008       7.49034994      -3.33306677      -0.20411727      -5.53555550
Al      17.07601054       8.02930006       0.05028964      -1.19330791       1.64340693      -1.33813791
Al      14.67500001       3.19410002       8.02728998      -1.77949741      -1.25604627       0.67083837
Al      15.83960007       1.74701992       4.73889002      -5.07661831      -1.53452563       1.44995809
Al       5.09743000       5.51934996      16.88090006      -2.65514425       1.52942930      -1.49405418
Al      13.64540008      15.57490009       0.00024944      -0.08303222       2.80411332       1.02036001
Al       6.17012997       1.75555998       3.34887006      -0.83943587       3.45616965       1.33703454
Al       3.90231998       9.27329007       8.35287006       1.97431592      -0.46956092       1.16841638
Al      14.09840007       5.45803995      13.20000005      -0.51947908       0.40639002      -0.97827602
Al       9.64622007      15.20569999      16.69549997      -1.67912136       4.08975921      -1.36062624
Al      10.29880001      14.87230002       7.75747996       0.67961139       1.42526121      -0.59889381
Al       4.04710994       9.50533997      16.03880002       0.67485679      -0.15716526      -0.04012487
Al       5.33290992       4.23590008      10.32360001       1.31467576      -0.07452928      -1.26570752
Al       9.88008002      11.79010005       7.94629000      -2.86902689       0.46091685       0.88525107
Al       3.03366994      10.65640006       6.10132996       1.43469992       2.37259007      -0.31470315
O       11.29009994       5.41250008       6.62446001       0.09441540      -0.22987913      -1.05851244
O       16.67010005       1.11470996       6.12186997      -0.08248709      -0.96520887       0.06248568
O       12.91199996       2.06463996       8.38369997      -2.00653387       0.26026547       3.57271424
O       14.31690005       3.64222002      13.57599998       2.51780951       1.08699004      -0.26463344
O        8.71357007      14.09010001       6.94480001       1.82592018      -0.34235264       1.58329166
O       13.47329996      15.85270000       2.07147993      -1.94201695      -4.48055113      -3.59963769
O        7.02281000       6.34643999      15.60549994       0.65437959       3.44906167      -1.94670703
O       11.53339992       9.35193000      10.78010002      -1.42162004       4.42338889      -1.33435033
O        3.12080996       4.18690995      13.07549997      -0.41224293      -5.25916591       3.57896448
O        1.66556001       0.25078105       1.63069003      -8.96202218      -2.69214099      -0.75803521
O        6.46414007       4.60953002       0.31074301      -1.27617548      -3.27889392      -0.50333885
O        7.28490992      10.80190008      11.37650005      -0.14864561      -1.52741947       2.35789646
O        5.66948002      11.59799997       2.03780002       2.90426284       1.13798567      -1.10438047
O        2.92683001      12.83109999       2.09911004       1.31964224      -2.16516513       0.40836955
O       12.89690006       0.76473697      13.43670005       0.63093469       1.41275507       0.54021618
O        3.99214995       0.91143203       0.38880308       0.97498932       1.26393187       2.71423570
O        0.10292904       2.59910003      14.70939992      -2.32997862      -0.01200397      -3.96113806
O       10.38150008      11.74459999      12.17440005       3.24700073      -0.20389623      -1.23276740
O       11.35300008       5.93496999       2.60107992      -1.00501507      -0.83065679      -1.66458512
O       16.46510007       3.78745996       1.28414004       1.18860712       3.12711065       4.53907561
O       15.48310001      15.80420000      13.71549995       0.84769540      -2.50136266      -1.04828728
O        5.26474998       9.71225997       9.73221001      -1.70325543      -0.15880085      -2.63966343
O        1.89012008      15.09760000       4.88745997       1.07846355      -3.28598093       1.38837631
O       16.78850006      11.11999995      11.35590000      -2.17934438       0.08975597       1.14576528
O       15.74869995      13.57650006      12.44710004      -0.44891203      -5.48312292       0.08845987
O        0.82043602      16.84419996      14.83750004      -1.10593649      -1.88845944       1.06360521
O       10.26369999       0.63140399       4.53853997      -1.33480676      -0.37031059       1.82943745
O        9.60886996       8.85792995       3.41027992      -0.49486209      -0.44743734      -2.63268453
O        7.07755006       4.99452000      10.27029996       2.72000435      -1.70126866       0.59434514
O       13.27890005       6.93412995       9.55255007      -1.85128959       4.29902093      -0.31053426
O       10.97229994      15.02059995       6.10588005       0.06600677       0.48507598      -0.09215776
O       15.07190004      10.94830006      14.38470008      -0.33937758      -1.09757922      -0.10384746
O       16.12309999       9.24002995       5.09585000       0.43178740      -2.31084410      -1.08127921
O        3.66797008      10.83819994       4.48713009      -0.65405768       0.45718073      -0.87266240
O       14.06670005       1.00529005       4.48373008       0.44029911       0.56161302      -1.50397417
O        1.62715999       8.53366001       0.24768504      -3.58728362      -0.49792454      -2.41719562
Al      14.37550005      16.97085869      13.41890009      -1.26110198       3.97353877      -0.28794567
Al       5.41275998       6.86498993       3.96785003       1.28359047      -0.23489825       1.93398980
Al       9.67107995      12.57240007       0.17655998       1.57718394      -1.05708492       0.54840191
Al       2.98727008      13.00989993      12.92920000       0.29958538      -1.03998953      -3.06902738
Al       5.49556006      11.50130001       8.48687004      -1.34649010      -0.25098065       0.85433337
Al       2.88118001       8.15863998       1.23334002       1.95999198       0.59547207       2.77329700
Al       7.78484999       8.52913994       3.45403992      -0.26369815      -0.28873430      -2.40210044
Al      11.85049998       3.10276004      13.48909997       0.52138808      -0.94012026       1.33814262
Al       1.18272992      11.13139997      17.08527953      -3.79065040       1.65613359       2.14859669
Al       8.62310999       4.72667992       6.28512003       1.43410041       0.20404816       1.71913641
Al       0.99531700       1.43480997      15.75270005       2.21671081      -0.32193610      -0.55845478
Al       7.04482004       6.20504008      11.75410006      -0.85278902      -3.47951662      -3.92947718
Al      12.82330001      15.61990008       6.29391004      -3.54848175       2.26576749       2.07900941
Al       9.20863993      12.12580003      13.32539992      -3.88092838      -0.42238635       1.24444125
Al       5.20528004       2.43646001       0.52862900      -2.92932954      -0.09404173      -0.83308871
Al       0.89025608      10.11740002       8.72642005      -1.12505081      -0.28779218       0.65350295
Al      12.36859993      14.79169993      12.41149994       1.11348357      -0.96653272       0.82989213
Al      11.57759995       7.66754003      17.07510560       8.23610941       4.43397449       0.68183415
Al      15.17939993       5.48567005       0.32992791      -2.14795003       1.17659797       2.11682641
Al      14.03209993       9.07438004      14.17120000      -1.39938123      -1.46821120      -1.57870203
Al       3.16929007      16.33760004       4.65840006       2.40689029      -1.02924131      -0.47952471
Al       7.45053993       6.32870007       8.94547998       2.12045311      -2.55062104      -1.37837248
Al      16.15510006       5.19382992      11.01100000      -2.29457037       2.16739560      -1.43485826
Al      13.39370003       1.32922992      15.49010005       3.72957547       0.42573152      -0.39169909
O       16.69109999      14.67569994       6.05205008       0.50405644       1.62769313      -0.29308124
O       12.06700000       4.55090995      12.69659993       2.31881759       2.59627439       0.39304020
O        5.68439995      12.94180003      13.13509995      -0.42733034      -4.76885623       2.17762009
O        9.47595008       4.67604992      12.04079995      -0.92146697       0.14558769      -0.47926273
O        1.46832004       0.05087378       5.05772996      -0.53112683       2.24646281       0.44757390
O        2.27680003      12.36700003       6.72022004       0.61636270      -1.81883060      -0.85248061
O       11.40890001      12.12920003      16.71019998       1.44429132      -1.61453470       1.16833521
O        4.52967001      10.70989997      14.43929998      -1.07814371      -0.09378404       2.28459719
O        8.59486006       4.69059004       1.61949005       1.11647728       2.98430580      -0.03315467
O       11.79130006      15.66079995      13.84470005      -1.49692573      -0.80742471      -0.77703644
O        9.21161002      15.96299998       3.30958003      -2.99604368      -1.03944937      -1.97783882
O        0.24043299      13.19239992       3.87898007      -2.29482250       1.07736019       1.86168649
O       10.24409992       0.33861500      12.63400001       1.16421134      -1.74075138      -0.80075487
O        6.51001995      15.02100001      15.18800004       5.09695154       2.07611205      -1.78362782
O        8.88268998       8.01316999      15.30950000      -0.24563460       3.30451058      -2.15930388
O        3.79562004       7.36232994       8.17007003       0.43932365       3.22722031      -1.24756168
O        4.12624000       2.58859997       7.39284007      -2.76889695       2.43260802       0.80702418
O        6.33761000      15.28229998       7.74001006      -1.18061387       0.84713539       1.31996264
O        1.51837002      11.77310003       9.35790004       0.33110413      -0.34485502      -0.03804722
O       11.11109997      10.62979996       7.81489007       0.93124047      -1.79741164       0.12237578
O        9.03240007       2.28367003      16.97825964      -2.55375910       0.20658244       0.17187534
O       15.16980001       9.34770003       2.58732997       1.96348256      -1.27155487       2.18020655
O       14.07079999      12.73839995       9.16511992       0.02918202      -1.19578034       1.93621312
O        1.30569992       8.25044006       2.94913992       0.34750790      -2.36456747       0.18781267
O        0.16306598       3.88475007      11.21919995       0.14281164       0.00532508      -2.01282917
O       15.13449996       4.69258005       9.18623000      -0.54424150      -2.03920810       0.35744512
O       12.05189993       3.13869999       5.11560996      -3.39827090      -0.40497718      -1.28808341
O       12.74069996       8.03418005       1.68135006      -0.01298969       0.51013485      -2.16791363
O       16.77973269       2.43807003       3.53851007       1.55699281      -2.50732949       1.52961250
O        1.34794992      12.40970001      12.39200006      -0.29745182       0.75716454       1.81630427
O        9.34750995       2.75913999       5.65694003      -1.97683495      -0.85446347       2.80628621
O       10.23350002      10.54989998      14.96130001      -2.60660511      -0.32996598       0.06836801
O       16.99208267      14.76190002       1.75665003      -0.46123089       1.76925806      -1.23813054
O       10.18750005       1.05198995       8.60755994      -0.33796974       0.10696589       1.27889862
O       14.51750005       2.88723994      16.60460003      -0.90729649      -0.18747751       0.70448485
O       10.91550004      14.56700004      11.33959992       1.10149768       0.22347167       1.31205944
Al      10.14609993       7.72986993       6.96878994       2.02393060      -3.56743316       3.55986618
Al      12.79540005       1.67459003       5.76765002       3.51668036       3.56582395      -1.47506251
Al       2.19248995       6.82189006       7.69132993      -3.67165703      -0.90734527       1.71372777
Al      14.91200006      11.14630001       7.04221004       1.67007149      -2.49200840      -1.06874989
Al      16.31280004      14.63150008       3.48889000       0.98355186       0.07217054       1.48041523
Al       9.87631993       1.13950001       6.38278995      -0.38503522      -1.90089006       0.07022460
Al       9.98717008       3.83372996      15.50380007      -1.22640548      -0.09714435      -0.79034980
Al       2.18928002      15.36470000      15.23389999       0.25908781       1.00465381      -2.49878523
Al      14.81199993       0.24124100       9.43056993       0.56122416      -0.86800644       2.74042536
Al       7.26844996       7.75212992      14.44049999      -3.09210442      -1.57565928       2.22951003
Al       6.46879995      13.06260006       1.10612992       0.45603945       0.08120027       3.34253274
Al       6.65025999      16.25560009      13.88150000       0.98866701       0.70320803      -0.45520156
Al       4.01944004       1.93169005      11.54900006       1.10862048       1.36583496      -0.31874755
Al      11.83559994       0.81118195      12.06219995      -0.91018096      -0.45285415      -3.50507423
Al       0.15539003       4.25002007      15.02440001       3.82046516       3.26395300       3.26303740
Al       1.01557000       7.67090006      11.53890007       2.89334543       2.53947249      -0.01129759
Al       1.29651001      12.92860008       2.66066000       0.69184886      -1.22803396      -4.17860056
Al       3.93258994       5.57031998      12.66710008       2.98175850       2.34109845       1.55508192
Al      14.05249995      12.40379997      14.08720008       0.12545485      -1.61783867      -2.59877888
Al      12.78489999      13.14299995       8.05287998      -0.03252431       2.00427905       0.24114675
Al       9.79650006      15.35280008      12.55750003      -4.87158289       3.11705816       0.16472878
Al       8.60833004       9.67968006      14.94890001       0.18388709       4.39115963      -0.50949481
Al       5.82828995       8.55475996      11.38460008       1.19700848      -2.70494210      -6.31796529
Al       1.52191001      11.11370002      11.13569994       1.17404196       1.41535499       0.37998052
O        7.35651001       3.52245994       6.73035005      -0.91522388       4.89479879       3.39903990
O        3.14372992      14.72470002      12.24340009       0.30179550       0.43083293      -1.30877233
O        0.72963695       5.31328996      13.71520007      -1.86535680      -1.24622278       1.24299602
O       14.23049994      10.36670005       0.16728893      -1.40969349       0.48967735      -1.72641996
O       10.71720005      13.34809995       8.51577993       1.52270608      -2.91539425       1.42249780
O       13.05240005       6.25486002       4.56667993      -0.55352955       0.82886251      -1.61851234
O        2.59073992      10.79960007      16.36609992       6.21747032       0.91415712      -0.16397282
O       11.20659992       2.49592995      11.33450001       1.15676960      -2.39994250       3.74598718
O        3.82207998       0.39110601      10.84069998      -0.26841444      -0.74926823       1.43414815
O        8.37768001       0.31731296       6.97323007       0.31319231      -0.34923948      -1.24156254
O        5.37380002       0.19711593      14.49329997      -0.47722272      -0.84830493       2.94757884
O       12.54390002      10.09439995      14.17830006      -0.79827351       2.75205896      -1.09087350
O        2.63174994       0.98759405      14.99750003       0.04110881       3.50056356       0.33395752
O       12.59700004       2.80338000      15.31499998      -3.73268105      -0.01984775      -3.20111731
O       15.94100006      16.03680006      10.61240005      -0.24683205       2.67592400      -2.25241279
O        0.77671907      10.94390008      14.63839993      -0.13693512      -0.34010905      -2.26696031
O        7.63865999       0.70868607      14.01150005       4.32523458       0.65675463       0.05645082
O        7.42078995       7.38990000      12.80090003       0.79382881       1.07464301       0.52088797
O        5.78822004      15.72920007      12.44800001      -2.93603560      -1.45172757      -1.33319096
O        5.28010000       2.55155008       4.96398997       0.95604002      -0.83605825       0.34828692
O        5.34845003      13.22649996      16.99314956      -2.79465061      -0.63635348      -3.01063870
O       14.56950007      14.27139999       4.34240000       5.78380799      -3.63487159      -0.37886199
O        8.34524008       4.64975998      15.74199996       3.47862800      -1.53928634      -0.74763946
O        6.20811002       1.44743007       7.64598992       1.14870534       0.04452206      -1.34152121
O        6.72881002       7.48518003       7.84571003       2.69323464       4.13329546      -3.07019892
O        5.51889003       5.34192999       8.46986008       0.52609062      -4.83673328       1.35436069
O        5.16949998       2.59354996       2.27100996       0.30062045      -0.99942959      -2.52200592
O       16.08099993      12.54029999       6.51585000       0.15434293      -5.02334437       2.04447461
O        6.73685001       6.35945998       2.80615007       1.19921782       0.76033357       2.17831029
O        7.99354007      16.33499999      12.26939993       3.21920924      -1.87167863       0.43165622
O        5.00420003       5.25502998      15.08619998      -1.81152043      -0.62909195      -0.05163364
O       13.87769993      15.22249997      11.72209999      -5.43735448       0.36537510       0.97423571
O       10.09830003      14.03150001      15.57920006      -1.23836991      -1.77280981      -1.28334948
O        4.62396000       1.86390992      13.53429998      -1.87049371       3.68502960      -3.61516222
O        0.97079097       8.07183003      13.21079998      -0.65999964      -0.30755817       0.16230830
O        9.95370993       3.77727008       9.11410993      -2.02311424       0.38716283       0.05278106
Al       8.73178999       0.19589499       9.73547002       0.46741613      -0.24445763       0.20942993
Al      16.19609995       2.94160996      17.11134713      -0.09812944      -3.76121921      -1.27620974
Al       5.74485993       3.18888001       7.51727994       1.36798632      -1.52256033       2.47865768
Al       4.11318998      11.84330008      16.63549993       0.70975896       0.40332892      -0.66324303
Al      14.95089997      13.40119997       5.79911004      -1.96793400       5.26475605       1.10887505
Al      11.21310005       2.84951996       9.71315994       5.22859795      -0.19703486      -2.64825535
Al      10.30710007       9.27378998       4.88559999      -0.04156159      -1.81437590       2.02896165
Al      10.81320008       5.78675001      12.76020001      -2.16523741      -2.15581659       0.38789769
Al       0.06151880      16.76390009       1.24972005      -1.74589553       2.00766124       0.36713836
Al      10.44379995       9.40647004       8.99262009       0.81546025      -1.85294827       1.80545916
Al      16.40840001      16.10120009      15.09780003       0.57387122       0.99021843       1.71625814
Al      15.87959998       2.58993997      13.63009998      -3.84605386      -2.71875476      -2.91668744
Al       5.16547003      14.73339998       9.23868995       3.64459656      -2.13736536      -2.47925155
Al      15.47080003      15.12659996      11.96590005       3.67820764       0.57279545      -0.55100448
Al      16.70920000       8.45638993       6.52748007       1.53478078       0.31586349       1.42720302
Al      11.82549995       0.39103601       8.84108999       3.30166368      -2.12292649      -1.77489029
Al      17.01826161      16.39600001       5.56660004       0.25501356      -1.20866503       0.11596539
Al       1.18627008       1.33358993       6.75172003       0.04790126       1.28958721       2.21387883
Al       4.18205999      15.97100000      11.58429995      -0.94048055       0.14333536       1.20785516
Al      13.51550004       5.35085005       9.93798009       4.27332756       0.68295522      -0.32104298
Al       4.14540998      11.26810002       2.67433000      -5.01270748      -1.73192814       2.23662544
Al       1.13478008      13.58019994       6.29422004      -1.66074204       4.21330554      -1.93574674
Al       8.53173999       0.44379207      16.85439997       0.13701028       2.50696775      -1.10176650
Al       7.31237002       3.38367999      16.33499999       0.20957613      -1.30818761       1.37969561
O       15.78119993       0.38677705       1.99366003      -0.76479507      -1.01697043      -0.66842718
O        6.79878997      12.21449997       9.34960992       0.98142747      -0.68914398      -2.49712417
O        3.74526006       3.42119993      16.47420008       2.83028905      -0.45959471      -0.58587220
O        3.46548009      11.40069996      11.67099993      -1.89419516       0.68636570       1.01642530
O        3.05362993       3.56822008      10.12860001       0.45545139      -0.21108780       3.95492959
O        3.67282005      15.91520008      15.75400007       2.19283414      -2.00615027       1.62765169
O       13.38160007       8.18392994      12.62390002      -0.95310528       2.02253440      -1.36386957
O       11.51989992       8.32306003       6.05752003      -1.14567835       2.58089880      -2.50602412
O        3.59746004      15.29119996       9.29493007       2.44607452       1.99543559       3.13354129
O        6.30213994      14.32289994       2.35553998       4.45144014       0.77699198      -1.92149295
O        5.60779996       6.22378994       5.63358999      -0.26300575       0.59429737       1.97584598
O        4.52225001       7.27818008      12.57340005       0.13979449       2.54423740       0.38808601
O       10.65040001       5.42450002      14.73639992      -1.59777534       1.03100113       0.65448640
O        4.98194004      16.86821356       5.63362996      -2.17545648      -0.21269589      -0.31084090
O       12.36050007      14.42129999      16.66350007       3.26557822       1.29037151       3.01231062
O        1.05462998       2.74605001       8.54349993       0.83142775      -0.33423226      -0.96768185
O        7.05873005       3.61109007       3.86346999       1.71045765      -2.64286600       1.17073169