360
Lattice="17.41624749 0.0 0.0 0.0 17.41624749 0.0 0.0 0.0 17.41624749" Properties=species:S:1:pos:R:3:forces:R:3 step=0 confid=0 wdir=cand0 selection=->scf energy=-2380.10526127 free_energy=-2380.21158124 stress="0.038911698598417095 -0.010639788652943998 0.004249954650193333 -0.010639788652943998 0.04513355187638 0.004296842115048793 0.004249954650193333 0.004296842115048793 0.05140655370996162" pbc="T T T"
Al       1.43239004       0.80455905       9.60869996       2.94324277      -1.22505621      -0.98182652
Al       3.07377993       5.64819008       7.01585002      -2.63652031       1.38976481       0.40081726
Al      13.44449994      13.97380008       5.69125993      -1.76190103      -3.80600590      -4.14961057
Al       0.15685699       4.87099996      13.70179992       2.55824378      -2.49398891       0.64244893
Al      15.05680000       8.90059000       7.67470005       1.35472649      -3.30927579      -1.43438526
Al      16.95340009      10.32829995       9.94943004       1.31377105      -2.02723049      -0.82154045
Al       5.07242008       6.03618993      16.94620004       0.99666560      -3.02121414      -2.18358775
Al      17.25144956      15.19270002      12.97919998      -0.13055418       1.01239065       2.27511719
Al       6.59780992      14.74890007      15.68469996      -2.49778435       3.70701643      -4.48404582
Al      11.30300007       0.81686799      13.98510009       1.08022202       1.05130986      -0.16032062
Al       7.03333994       7.71840002      12.30150001       1.06514028      -2.51582145      -0.18793858
Al       1.19300007       3.63126008       8.41595992      -0.17427174       5.01133937       1.70334737
Al      15.51220004       6.38879998       3.73590003      -1.03014332       0.53983420       6.02223671
Al      12.18219993       9.32180003      16.32120006      -5.45143896       4.27894631       1.10581303
Al       5.21408001      16.58499995       6.27887994       1.36181848      -1.01151353       1.68348699
Al       5.97424992       0.51712096      15.99990007       1.66819187       0.50004608       2.51073529
Al      12.61849992       4.84018992      12.32949993      -1.81340943      -4.80392257      -5.19133135
Al       7.84860999       8.75254998       9.39713993      -2.44673235       2.38095367      -0.03518318
Al       2.73032997       4.54174005      14.42179996       2.53594592       1.50353256       0.62207016
Al       1.00074995       7.62816000       8.30138000       1.24517024      -1.13864716       1.84820318
Al      10.33119993      16.01880001      12.19370005       0.87157077      -4.96695521      -1.55402492
Al      15.02030007       9.65586995      14.00160007      -2.31224285       1.07876403      -0.31819122
Al       5.95673997      11.83539995       2.68528998       0.26211828       6.32735187      -0.79342037
Al      10.62440002       9.66891002      11.51589993      -0.05370130       3.86461518       5.05239459
O       10.95510007       7.64525997      14.36480006       4.16814869      -2.90937841      -0.21350050
O       12.82399997       5.62792993      13.72630005      -2.10959628       2.52165887       3.80295930
O        6.08105993      13.67020005       3.16489007      -0.43025639       4.62088491      -0.62103945
O        5.43761998       0.86408308      12.05650008       0.62867758      -0.11079502      -1.08416653
O       15.36809992       2.96344000       5.77972994      -0.27995147      -1.66695158      -1.37064224
O       15.01070006      10.71079993       2.43553002      -2.68367833      -1.27494420       1.31363271
O       14.77860000       2.24736001       3.51346007       0.43612087       0.74471015      -1.51567136
O       13.65830005       1.45916996      16.72949995      -3.12711105      -1.26048831       0.83725005
O        6.76753996      16.35060008      16.41530004      -1.55644327      -1.38367389      -1.75138351
O        7.45825998       2.63017000       5.74570991       0.01584812      -1.21379886       1.65277578
O       15.35920004      15.07839998      13.92269994       0.94435228      -3.50906625      -3.87805437
O        6.77797003      10.19660003       8.69668005       3.27673718      -4.54916769       1.91417167
O       12.68270004      17.21248349      14.74320008      -2.30532866       0.41004567      -0.16825420
O        7.04650001       5.91804995       0.45227905      -0.29396434       3.23425717      -0.05883343
O       12.88000000      10.04810005       4.38709997       1.43423969      -3.18944762      -1.85279826
O        0.74711295      11.33040000      14.61820002      -0.39212072       0.20725831       3.76310689
O        4.79614005       9.56858007       5.74746007       1.17397257      -3.73940411       1.09142104
O        1.60840996      10.89479997      12.39559999      -3.47649808       0.38951910      -0.77664678
O       11.39270001      13.98250002       0.26869804      -2.63778287      -3.23805134       1.01648935
O        8.79652008       7.90502992      16.73449998      -2.06728791      -2.45508318      -1.57703480
O       15.04580007       4.56095993       7.71344005      -2.38725316       1.79044118       0.68736965
O        5.43273995      13.12230006       8.80347996       2.46411906      -0.18527646      -0.63097989
O        4.11471003      15.28749996       7.43934994       0.46046826      -1.54889094      -3.86478398
O        7.60934001      15.91150008       2.37012000       2.29510862       0.31810648       2.66453007
O       14.03510005       8.71531996      12.67799992       2.01150438      -0.46690458      -1.11651050
O       11.30269998       4.99037998       5.11512994      -0.08986907       2.32498114      -1.08385329
O        0.80382600      14.33059995       6.46441000      -4.19172275      -0.42500972      -0.05423669
O       13.85670002      13.22229997       1.08083995       1.90960643       1.84467723       0.21020133
O        9.39035996       0.53803804       6.16265993      -0.13905371       1.87412526       0.99075302
O       11.63790005      12.22169998       2.64762003       2.38743188      -2.89200364       1.41919591
O       11.52589999       8.16124992      11.67260001       0.46952790       0.13670727      -0.30385513
O       11.36890001       0.80020604       2.72713008      -0.84508900       0.65478298       1.60746813
O        2.71571007      12.77000003       7.46483009      -0.79396511      -1.58747757       2.78970383
O        7.72427000      13.48430007      14.05480009      -0.77666537       0.54338454      -1.45102685
O        6.60435007      16.08110002       7.77371995      -0.78330691      -4.13510123      -1.98467907
O        5.23981007       1.75828008       0.07665117       1.07437811      -1.31037546      -2.28133697
Al      14.51709992       8.02222995      11.00550008       2.93722603       0.99202765       0.68972367
Al       1.91394006       5.79923997      10.67509993       2.13853457      -3.65211292       0.80689189
Al      17.24092544      16.42280000      16.42160002      -1.11370998      -2.97380108      -4.38238691
Al       7.48976998       2.00349997       0.95060300      -0.96097885      -2.28128329       0.97410672
Al       7.73284001      12.19760007      15.25280001      -0.19396185      -0.71226834      -1.73989580
Al       4.29211994       8.95077004       4.32079997       2.41242913      -4.53669166      -1.14950996
Al      17.13045749      17.13209758       1.30760995       1.21138592      -1.16950129       1.54147550
Al       8.03004009       2.26340002      12.97929995       0.87762231       2.95004832       0.19566644
Al       0.06899934      11.72379994      16.52700002       0.65546724       2.23103643      -0.38327983
Al       5.89570996      14.68780005       9.56904996      -1.91387835      -1.20977966       1.46977322
Al       0.29642000       9.49441002      12.65990008       2.23062831       0.27266181      -2.59420209
Al      12.49800004       8.52362995      13.23319993      -4.32311567      -1.70113564       0.71992278
Al       2.64621994       3.35699006       1.56557993     -11.74593462      -4.24222826      -2.00677904
Al       8.26098998       4.14880008       6.09721002      -5.72359457      -1.06006129      -1.93990018
Al      14.39250008       7.60035009      17.07169995       0.02912513       2.29324073       0.13835540
Al       5.15824996       3.20342004       2.72544001       1.58848354       1.24783598      -1.92335081
Al       7.40215006       5.24427003       2.11699992       2.95784200      -2.67665594      -3.20022325
Al       8.80708008       0.03954185      14.76749993      -3.91108934       3.39616552       0.35262081
Al      11.40120001       6.07827995      15.04430001       2.10718374      -1.49232325      -0.98955285
Al      13.17450004      11.63129999       1.29845997       2.03252595       2.58605499       3.83459745
Al       0.62298300      15.89259997      10.23330007      -2.75192717      -2.31418004       3.52326193
Al       4.15094994      13.07310003      13.56169997      -0.94968623       1.06000203      -0.33341253
Al       5.52077995       9.86060996      14.44039999      -0.05536085       1.78433119      -0.14781248
Al      11.10119992      15.80620005      15.98429999       1.05755222       0.25899611       0.69786070
O        4.84910007      11.51229999       6.96799993       1.34337533       2.57160254       0.47132691
O       13.31529995       9.54371994      15.11430009       2.00359417       0.26746190      -4.94724101
O        3.59360999      11.15240003       3.30916000       0.96821803      -3.56437078       2.29327135
O        8.39011996       4.36162000      15.86920002       6.31072458       0.98003807       3.68974080
O        6.87733007       3.84592996      13.69929999       0.58737274      -3.82527084      -3.10145439
O       13.02809993       5.46484001      10.56459994       3.70252068      -0.21045584       0.59087706
O        9.29326002      12.31280002      16.38760002      -0.74969569      -0.29896260       0.92899209
O        5.27786005       1.36899003      14.67310004      -1.58373883       0.45263089      -0.08598713
O       16.52209996       9.03469998      11.20369994       0.21146995       2.35065081      -0.96627870
O        1.09984003      16.56459995       8.86592000       2.02159349       5.69719806      -2.47194563
O       16.17860000       6.62456006       5.61796000      -1.13399121      -1.34961044      -2.93812386
O       15.02610003       0.40388696      13.78690006      -0.23226185      -0.33666126       0.24443196
O       16.24590004      12.88179997      11.52139998      -0.05221663       0.52680819       1.16040844
O        9.55872004       1.44017998      13.77000003      -0.70732305      -0.65973856      -1.42713947
O       13.52300002      14.62579995       7.08646995      -0.19424705       1.67982989       6.12030021
O       16.18899994      16.20790005       6.04668009      -0.40933747      -1.38687338       1.37060792
O        3.75759005      12.91079994       5.17263996       0.14924339       1.58721533       0.06669070
O        4.43167006       3.77340993       7.34342003      -3.04737841      -0.96598497      -0.90131712
O        1.46945008      12.98340009       4.39916003      -1.99806607       0.03304698       0.99807011
O        0.46979805       6.43883999       2.94225000      -0.53786613      -0.93899212       3.72768982
O        8.51079000       1.23862001       3.09294007       0.84685882      -3.37151096      -1.12884660
O        2.94821994       2.21463993      12.75099994       1.06983767       0.95825555       0.59368346
O        6.17481003       8.46249997      13.64549998      -0.94297583       0.56710542       0.07520670
O       10.40749999       9.87880001      16.08210006       2.34769685      -2.52666141      -1.59504108
O        0.98920802      13.23599994      16.99693548       4.01638428      -2.40952474      -1.64196720
O       15.87300007       1.76880002       8.45282002       1.19264683      -1.11147402       4.64586061
O        5.79171006       4.40783001      16.41209998      -0.85416174      -1.00631326       0.62978977
O       13.95420001       0.10508493       3.85787995      -4.37414810      -3.30576826       2.63872289
O       12.27130006      11.14469996       0.05602337      -2.01004347      -0.80805265      -4.01603518
O        3.11717008      12.53669999      15.37919999      -0.32115780       2.75909854      -1.14065222
O        4.58487000       6.52941005       7.76339995      -0.62937457      -1.29774109      -0.43936316
O        4.24290999       4.65665994      13.28370008      -1.27965454      -0.61359799       1.34540228
O        3.87042992       0.20535306       6.42933995       0.15915248       3.57694528       2.01400980
O        5.94131998      14.69220009       5.52486998       0.58728645      -0.34155208       0.56336005
O        5.17548995       1.92201998       9.25462992      -0.43859772       2.53337740      -3.50717322
O        6.89438006      13.34819994      16.36330000       1.40458787      -4.58265598       3.90819701
Al       8.22466996      12.51400000       0.34665107       2.50812322       2.42684036      -0.93066999
Al       7.17165003      13.05820008       4.90066000      -3.66622262      -1.17931287       2.22532715
Al       2.48112001       0.74660092       0.46058695      -0.50129790      -1.12628718      -1.52191238
Al      13.07030002      15.79610002       0.26704106       0.58016591      -0.21724601      -1.78132651
Al       6.45411003      13.51940008      12.55149996       1.77602186       1.31578755       2.60185184
Al       2.98620007      12.84169993       3.33269997      -1.42287023       2.25644926       1.87345981
Al      14.25210005      16.37050006      14.41190004       0.44989131      -0.56226478       0.81864525
Al       4.59485003      11.13349992       5.26752995      -0.18524768       5.98782517       1.24340820
Al       4.97354996      15.04650003       3.79660994       2.48164788      -0.37708834      -0.69532579
Al      16.39639993       2.63090009       4.06883999      -1.59182215       1.86348617       0.49411309
Al       4.39660994       1.59830993      13.14950006       2.40721504       0.04474577       2.62886101
Al       0.26402700       8.66347998      16.83300000       2.90960137      -0.26873951       0.81182746
Al      16.31950006      11.72269993       2.03400993       2.40967220       1.06208368      -0.75934065
Al       4.96034008       7.12173001      13.73610000      -1.51827691      -3.40480629       1.67186322
Al       7.23259993      16.95360003       8.96830002       5.02006674       2.28357126      -1.33207091
Al      10.38599998       7.87741994       9.90825002       6.94009010      -0.46829487       0.10193107
Al       1.12086005       6.81355996       4.68284005       0.17250657      -2.30580649       3.28326554
Al       7.07803996      17.31523447      11.93150002      -0.58159673      -1.32506992      -5.94216080
Al       0.65607893       9.27401002       6.01424006       0.17136397       1.35346384       0.89756691
Al      11.59840000       5.52946003       9.67403005      -1.86399230      -7.46467246       0.93858152
Al      13.69530000       1.72208999      11.25050001      -4.93492129       1.09534141      -1.24240560
Al       2.18848003      13.41789993       6.05303005       0.45926681       1.08847926      -4.11410331
Al       1.51349002      13.58750005      15.05019994      -0.64658082      -1.03171963       3.51590060
Al       7.75812997      14.45620001       6.68480008       1.86391325       2.39614091       3.65431893
O        7.01190995       8.56264008      10.89879996       1.25593299       0.71637780      -1.74306266
O       10.79090004       5.43610006      16.56990007      -1.27656605      -0.24220443      -1.69246434
O       14.43149993      16.05160003       1.49412002      -1.78020758      -0.89868196      -0.29475916
O        9.35879998       4.03677999      13.45940006       0.60085969       0.02813528      -0.65835498
O        9.63838004       3.69896000       6.77174999       1.66056076      -1.34352195       1.15479417
O        3.17557006       0.39382908      10.38750004      -1.40620790       1.04835458      -1.14062985
O       11.05110000       2.05569995      15.49099993       0.69673248      -0.36774178      -1.44403111
O       17.29668443      11.06249998       6.32790999      -1.04480308       2.67839963      -1.07111658
O        1.02763001       4.22377998       1.29867001       4.94004471       3.07048439      -5.43512047
O       13.09010003      14.91430009       4.20840997       3.78708691      -0.41163838      -0.37637881
O       15.42129994       6.59150002      10.54629999       0.17825829      -1.37444957      -1.07666722
O        2.12050006       2.20711994       8.57618992       0.72751027      -1.60977609       0.22122757
O        8.66146997       6.76803006      12.83709995      -2.61494347       3.29684188      -0.50739824
O        0.98035604      12.66099992      10.10039999      -0.24104222      -0.76945829      -0.66720247
O       16.06599996       5.30774006      13.09170006      -2.27100329       1.81075200      -0.30946232
O       15.34749998      13.10080005       5.33952993       0.35294438       1.60422009      -0.36995866
O       13.95510008       5.61807007       4.55280999      -0.77348325      -0.01903757       1.24491396
O        9.06077001       7.31385003       9.27700997      -5.86905795      -3.14972258      -1.86477041
O        0.47809602       0.48363404      13.34560004       4.51897683       1.39960460       2.31084348
O        6.40605007       3.93303001      10.81700003      -1.43835789      -0.39625902       1.08959750
O        4.72606003       4.38419999       4.26965995       2.51932433      -0.55284630      -3.68301423
O       11.20860000      12.13020007      14.77139995       2.22597075       0.57034036      -0.24742064
O        4.13463997      14.90839998       9.58893008       0.06341696       1.31369662       2.28780370
O        3.56216008      10.90399993       0.09565682       0.43688035      -1.63022348      -0.12750992
O       14.84949998       9.64008996       5.85911999       1.22401897       1.08285705       2.89801582
O        8.55566000      13.58910008       4.29158997       2.16052669       1.88913124       0.20262573
O       10.86149993      16.88850001       5.01575005       1.47723461      -1.25789056      -4.80552425
O        8.08899008       0.92034192      16.25780004      -1.02404859       1.71757192      -0.17197648
O       16.88824242      16.35350006      11.49850006      -1.96038305      -0.89715526       2.19920547
O       13.21230009       1.31066998       9.49932994       0.39682399       0.16186636       1.97766657
O       10.18080001      16.48610005      14.73799994      -0.45824961      -1.18691250      -1.06048098
O        6.30032004      17.01218654      10.23680004      -3.22243674      -0.77757401       4.20231456
O        2.28413006       5.26467002       5.38608008       2.00857312      -0.15888790      -0.61907183
O       11.94670005      12.88790001       9.16210001      -3.88241753      -3.13263678       4.14660300
O        6.04103008       6.70514992      15.38379997      -1.31551533       0.33219067       0.22159976
O        5.98494001      12.02059997       4.39325000      -1.09316328      -6.68829567       3.01981451
Al       2.96782993      12.48220002       0.01053387      -1.64135796       1.30503878       0.52773188
Al      14.96619998       1.08892005      15.60900006      -1.33695444       1.84909585      -0.05802160
Al      15.73660003       6.50197006      14.87870006       2.88658121      -1.10771859      -0.52007856
Al      15.52779994      14.35000008       0.72747701      -1.10888104      -3.24590356       1.50059087
Al       9.83062005       0.83385701      11.27650003      -1.66799290      -0.05276530       0.76537322
Al      15.64899996      11.28440004       7.05095003       1.34384330       0.57449803       0.36815357
Al       1.58309005       7.44312004      14.08890005       0.53760736      -1.62877328       1.57371927
Al       1.48840993       1.47661007       3.64393006      -1.26243844       0.52906173       1.89119247
Al       3.51854997       3.60830007       5.01189009      -5.91234675      -0.52261108       3.93144649
Al       1.46720007      11.80649995       8.24477005      -1.15185427      -0.46971095       3.16776369
Al       3.79631003       1.90209997       8.03342006       0.77643768       0.12671113      -2.09503941
Al       4.82112993      10.02069993       0.80131597       1.00123379      -1.66546475      -2.66320632
Al      10.81159995       2.41951996       1.99837995      -0.82733418      -0.32240247      -0.69884130
Al      17.28784342       4.65888992       2.45736007       3.07253816       1.06480328      -0.84167648
Al       4.83843001       0.80285696      10.36389998      -1.50489503      -4.30752277       3.72514051
Al      14.42840002       5.54069003       9.22638999       1.04016041      -0.71724111       0.45208964
Al      13.05289997      13.86130000       8.65114005       5.34525023       3.73898421      -1.12183151
Al       1.94006007       5.94608994       0.21286294       1.52461792      -0.20139675       0.58183191
Al       6.95432992       3.86089993      15.33870008      -3.18588829       0.34686959       0.23819632
Al       3.94428996       2.86706005      16.51330005      10.74742736       2.33344128      -0.34533241
Al       4.51141001      13.57780007       6.83687997       1.29606833      -0.93629320       3.03866984
Al      16.70920009      15.12300002       7.35175998       2.48256120      -0.16753288       1.48356713
Al      16.17230002       3.03215998       7.42674006     -11.56053274      -2.48844789      -0.87632861
Al      12.14029992      16.35230008       3.70942995      -0.91262998       0.92230727       0.51298011
O        6.90221005      10.56360007      15.05969998       2.40777568       2.38741450       1.11760177
O        9.99318993       9.98791994      13.26730007      -0.08852762      -1.31881376      -1.89125831
O       10.49900007       0.94453796       9.82006006       1.77417076       0.10965689      -4.21701727
O       16.31970000       1.19185007       1.73489999      -0.95535752      -2.77673534       0.39019877
O       16.66690003       0.75893806      15.49860004       1.82889293      -6.29815590       4.35585665
O        3.88706993      10.17419995      14.62720004       0.31378417      -1.01780580      -0.71990646
O       11.68689997      17.29367246       7.21853996       4.16442692       1.40105359       2.81073407
O        0.92482294      17.32061575       0.03751982      -0.21394364       0.57255102       0.47566982
O        0.10145609      10.28639994      17.30792958       0.41917703      -2.75525412       0.82320134
O        0.86640502      10.10109995       8.58441004       1.63990029       3.82503672       2.87548260
O        7.49498998       1.16393008       8.54143005       0.86127837       1.98705847      -1.60949017
O        1.88835002      10.39250007       5.18010004       0.52516649      -1.06189957       4.86895665
O        1.82054996       5.53796996       8.22404002       0.06132417      -3.22990778       1.14958992
O        5.44709999      12.12839992      12.85409995       0.51793525      -0.14766257       0.36259508
O        1.59109995       8.68782999      15.59239994      -0.90978520       0.02695642      -1.17079637
O       14.50640007      14.12870001       9.61473992      -0.61332542      -0.54582845       0.08693754
O        3.93504002       4.11687000       1.70719004       8.15348155       2.16400667       2.17069520
O       14.25679999       6.51433995      15.75800007      -0.70776802      -0.27649031      -0.22839862
O        1.71469000      15.43369996      11.60829992      -1.01505522      -0.27057870      -1.65653853
O        9.30947995       5.12256006       1.64757005      -1.34234326       1.34559581       2.11716065
O        4.88890003      16.97852146       3.60812991       0.81736057      -1.43477485       0.63697030
O       15.22019993       3.92778998      10.29079998       1.30105163      -0.37263367       1.58672097
O        1.65562001       7.33152996       6.70278009       1.37144279       1.96646373      -2.94438036
O        9.31098994      15.33849996       7.48086993      -2.00830658      -0.76975915      -1.41762786
O       15.31009998       1.33621996      11.72209994      -3.18093087       2.63950523      -4.15966440
O       16.33859993      16.43999994       3.08621008       4.13086672      -4.29325635       4.56478873
O       12.08909999       2.50013002       5.56887004       2.91542506      -1.89067274      -2.69649225
O       17.36997984       1.35555008       4.66879001      -0.36045649      -1.42562306       0.87953475
O       11.61240005      11.11880009      11.81990001       0.69756425      -0.26595722      -0.06852841
O        5.07178996      14.74769992      13.99610002       1.09131454      -2.26467427       0.60387002
O       10.79080007      15.41739992       2.76494998       1.40398120      -0.08054194      -0.03500276
O        5.70190997       8.83273003      17.12671944       0.18143630      -0.07359052       0.28689325
O        6.93470006       3.54179003       1.18819005      -0.07287305       3.82470531       2.01226347
O       12.44559995      14.86500009      16.24329997       3.90717424       1.05032780      -2.91402203
O       15.36569996      10.17660008       9.13415999      -1.45227876      -0.78107425      -3.38111434
O        2.01120997       1.66223000       1.92936998       2.38092400       0.77553485       0.38601411
Al      12.02080008      11.40270007       4.45162003      -1.36397421       0.84407699      -4.22962535
Al       9.51148003      16.55549996       3.29735997      -1.48589132       1.73455172      -1.13371013
Al      15.04760004      14.50210000       3.80352994       1.62655832      -0.74778652      -1.97516902
Al       9.73494999       4.88739004       3.77536995       0.56279770      -0.61923792      -2.30740623
Al      15.15319997      17.39339772       2.73968005      -4.16514272       6.28606262      -6.45867070
Al      16.53430004       0.57631599      12.48000000      -1.29137097      -3.42700491       0.73882760
Al      16.47949999       4.92041995      11.20579999      -0.31898144      -0.03048554       0.53507623
Al       5.63110003       5.00874994       7.74449009      -0.33579252      -1.36476883      -1.45663867
Al       6.63977995       0.36279506       3.69805993       0.87361674       0.99231540       0.30453833
Al      11.26330008      12.34100006      16.46580002      -1.71721038       0.40212515       2.06331205
Al       5.66091003       7.65536993       7.03953002      -1.91064562       0.99586036      -4.51837357
Al      17.14274657       2.20237994      15.00350001       2.49064042       5.05820747      -2.05395888
Al       9.56978005       5.45835002      12.45110000      -0.46056029      -3.26908082       0.74770240
Al      13.86670009       1.55106993       4.76039999      -1.06722799       4.16975683       2.53748724
Al      10.80139995       1.64628002       4.55975002      -1.89128852       0.52453084       1.46524921
Al       6.96329998       7.77840004      16.41120008      -0.01581898       2.27355226       1.60360738
Al       8.26599001       6.25126004       8.04171002       0.04974246       0.93285965      -0.51746459
Al       6.70875003       2.83450995       9.45121999       1.43671648       1.17701619       1.34101855
Al      10.81850009       4.95676993       6.79983996      -1.50962783      -1.27176693       2.57064074
Al      17.26954243      12.90439999       5.42971997       0.29274188      -0.73785037      -1.37594157
Al       7.95877994       1.15338002       6.75977998      -2.34576312       2.67953315      -2.86259653
Al       7.85633009      14.10119993       2.64561002      -3.09077630       1.66118622       0.16400990
Al      12.73470008       4.45088994       4.30789993      -2.54424788      -3.76488780      -2.94698485
Al       3.06828006      16.63230004       2.78240995       0.20052050      -1.02021536      -1.54000618
O        8.11598004       1.58539004      11.14100005      -0.25598242       0.73566221       3.04254855
O        8.87145000      16.52439995      11.32850006       1.08175379       1.45534846       0.76406592
O       15.05790001       7.93811992       3.01944002       1.76856518       0.41773031      -0.37946170
O        1.21443999       7.24408995       1.03972002      -2.56533512       3.23790993      -2.69684297
O        6.46780008       4.96494999       6.14019001       1.11744523       1.28765613       0.93747209
O        5.64556005       7.04449992       5.19693998      -2.45553729       8.17884554       2.48703487
O        5.52072004       6.63613995      12.04700004       0.16833552      -0.36483017       1.65133624
O        5.87643993      10.38039996       2.09400995      -0.99489532      -5.45097103      -1.07066265
O        0.06616223       3.66083009       7.19021993      10.10845633       4.03630057      -1.52506530
O        9.73142007       9.44892000      10.14409997      -1.35561678       0.50259011      -1.83681242
O        0.23994207       6.12982996      15.17840006      -1.54784495       0.74641932      -1.86764184
O        0.68600596      10.31289998       2.68219007      -1.06023821      -1.29326222      -0.13150276
O        1.37656000       5.71349003      12.57570001      -0.37305688      -1.61576675       0.94930104
O        0.25739507       8.42263000       4.51766000       0.85947972      -0.46870368      -0.26356405
O       10.88009996       5.03342998      11.41820001      -0.07703225       1.48956088      -0.76498086
O       14.95690005      16.20209992      16.07080005      -0.14152168       0.87040736       1.97365757
O        3.42932009      12.89580002       1.75034994      -0.04681658       0.31324341      -4.47720227