360
Lattice="17.27633583 0.0 0.0 0.0 17.27633583 0.0 0.0 0.0 17.27633583" Properties=species:S:1:pos:R:3:forces:R:3 step=0 confid=0 wdir=cand0 selection=->scf energy=-2364.3198436 free_energy=-2364.4212647 stress="0.04557489113375034 0.003775640382880814 -0.005362663883904303 0.003775640382880814 0.052329739918521724 -0.005937375671634816 -0.005362663883904303 -0.005937375671634816 0.04919252053537393" pbc="T T T"
Al       3.44032003      10.86129994       4.21796004      -0.19245444       0.01601234      -0.85186812
Al      13.77799997       6.87271004       5.17990002      -0.46631534      -0.90887396      -0.74685763
Al      11.75480007      15.89829996      15.26060000      -0.66325783       1.55317666      -0.73255029
Al      12.53300000      12.41400008       8.60850997       0.44102446      -4.33008054      -3.94773676
Al       5.33764005       0.90002695      11.81350005      -0.67194204      -0.87211608      -2.92978270
Al       5.69792007      10.51720008      15.12190005       0.13356164      -0.91841507      -2.02336188
Al      14.52469996       2.11951996      11.51200000       5.63009547      -3.12820714      -5.84004665
Al       4.37854997       4.05949008      16.49919994      -0.23439645      -0.69819806      -1.55439432
Al      16.31599995      14.67209993       4.95607006      -4.31456774       4.11494319      -0.08617979
Al       1.23256999       4.26808992       0.06301302      -2.73888072      -1.91182303       1.34632410
Al       0.57989904       1.22939995      11.56220002      -3.06009352      -0.65491153       2.44401140
Al       5.00729008       6.52725001      13.78170004      -0.82127071      -1.39471730       0.90675282
Al       0.19567506      10.24019995       9.85273993       0.13283334      -2.58821141       0.38152795
Al      14.14020008       6.42722003       9.33212999      -2.97523201       2.09027807      -1.56755526
Al      16.88071379       8.95488997       6.16128003       3.08282051      -5.56694684      -3.98380748
Al      10.73590000       4.31283994       8.20936995      -0.38725447      -4.56381008       1.85348849
Al      16.39580004      10.90329992       1.70460008      -0.58602630       2.96172940      -3.63651648
Al       1.27474999       4.24675001      11.87079995       0.68922378       0.36262947       1.34510787
Al      14.55080001      11.79699994       3.83349004      -1.01740235      -0.52840911      -3.35008880
Al       9.73047997      13.28469994       8.01446006      -0.79313325      -0.33614576       3.65985123
Al      10.24999995       3.37207003      11.31489998      -2.38424801      -0.02771218      -0.79355876
Al       8.69503004      11.79769997      10.70689994      -1.62329146       2.09568298       3.61606838
Al       1.63386005      15.61220004       5.65030994      -3.44320967      -0.33251032       2.97974113
Al       7.46128992       3.80277997      12.31449996       2.19020686       0.89633116      -0.03221052
O        6.44838008      12.19610005      14.47900008      -2.46050016      -2.03028579       3.01501658
O        0.13059804       2.19975006       3.19226000       1.97533523       1.71703721       1.58524059
O        2.54844992      10.39069998       1.29484997       2.63238604       1.59147458      -2.98479946
O        9.54717995       7.21905997      13.43559992       4.64386692      -0.18295976       0.93522882
O       15.12379992      11.71339992       5.51893999       0.92648097       2.07887131       0.49679520
O       17.13980008       9.46533002       1.99669005       1.60813688      -1.94431534       0.66038169
O        1.59586006      11.20970006      15.98260001       1.59412254       2.13821190       1.02862084
O        7.23850000      13.44120005      11.96910006      -0.71923070       3.89143006      -2.40455897
O        5.82684006       1.57391998       1.89584998      -1.17463832      -1.90468806      -1.84394590
O        1.51158005       2.60255992      11.19810003      -1.62261811       1.40019808      -0.05630352
O        3.54947002       1.55573992       4.06520008      -4.64565726       0.39870977      -0.41819070
O       11.43419999       3.71934995       9.91444997      -0.82194266      -0.57938725      -1.24886637
O       12.67799994       2.88773003       7.79436006      -0.80010372       1.02716929      -1.83394208
O       10.71319993       3.22302000       2.74639993       2.57610650      -3.30193188       0.24663009
O        8.67042007      15.03720004      16.50159997      -2.58115749      -0.57519798      -0.90273696
O        0.58176091       7.02423992      10.57329997       1.95994253      -0.46316988       0.42494374
O        0.03501239      10.53469997       6.37163998       2.67961599       5.21500306      -0.43228530
O        5.73581001       1.74688996       4.38194995       4.23835670      -2.29735022       0.43653145
O       10.31449994      17.00219994      15.71930002      -0.45836059      -3.95290248      -0.96805807
O        4.82412999      11.69159995      17.00459997       2.47655070       0.05733781      -2.39528732
O       14.50979998       4.75496004       1.14944006      -2.18919862       5.13444889       1.63577927
O        6.16885001       9.58560995      10.41769996      -2.98473749      -2.03121013       0.06407204
O        8.68867995       2.01296004       5.34080007      -1.73143387      -2.66765210      -7.63864413
O        3.24873997       7.00367002      13.93479999       0.55762015       3.15095075      -1.63038915
O        1.54952994      12.82719994      13.59550001      -0.95908973      -0.05892030      -0.39546631
O       11.02300005       7.41900005       4.91722992       0.73502534       3.79086648       1.34187895
O        3.72758005       4.98788996      14.86699998       3.27356163      -3.12523045       0.38941717
O        0.60311101       7.30370003       7.08738994      -3.37422080      -1.01352457      -2.46059890
O        6.15846002      13.88049995       1.38010005       1.76658988      -1.88354807      -4.77050573
O       14.79329999      15.03610006       5.95915001       1.50779026      -3.86694679       1.26604695
O        6.72512003      10.52539994       4.15142006       0.06710263       1.79636816       0.74242122
O       10.07100000      13.35269994       6.40296008      -2.29502588       0.83166104      -2.98688643
O       15.83779996       5.21427993      15.48830003       0.06115969       0.73182109       0.23235747
O       12.44490002      11.80909994       4.97016997       1.21738805       0.89800662      -0.79475457
O        0.59906299       1.70309998       8.59787000      -3.33245340      -5.96912971      -1.98808099
O        6.53652999       8.66869002       6.10470003      -0.93949732      -1.22752878      -1.35753898
Al      12.39190002      14.76769992       1.95199997       1.11667870      -0.61175441       0.53044493
Al       4.83370005       9.07877996       5.53924003       3.16068139      -0.72127377       1.63055767
Al       5.01145005       4.88325998      10.90219994      -0.70860225       0.90817611       0.95678042
Al       0.00144136       7.28197002      17.24453856      -0.07982141       0.53082300      -1.77945011
Al       1.05197993      11.62199998       5.34225007       0.02378717      -0.89029222      -2.06125450
Al      10.70480001      13.08779999      13.08050004      -1.25747337       2.13608333      -1.93633758
Al      12.06389998       1.53000992      13.55240005      -2.32839912      -0.25935713      -6.73539964
Al      10.16920008       9.79896008       9.06841001       0.82030388       2.07663423      -0.46270525
Al       6.60788005       0.32329708       0.86734997       0.64380939       0.32418360       3.38315916
Al       3.27703999      16.14700007      13.10580003      -1.61111304      -0.20084435       2.86097689
Al      16.58870000       0.72296196       3.45209005       1.28397310      -0.90155330       1.08882829
Al       4.11311997       2.93045994      13.72280000       2.26045929       2.49975302       1.52560175
Al       8.29037005      11.27959994       4.68869009      -2.05742741       1.31025912      -2.84577830
Al      14.23910002      11.35240000      17.06317988       2.33880928       0.20827297      -0.47502962
Al       9.90554004      15.62090005       0.26094005       3.48393384       3.41261715       0.34337786
Al       0.30724305       6.25704000       5.45966005       0.96871789       2.37486370       1.12880085
Al       4.98485002      13.15799996      15.57360004      -0.98799311       1.07286056       0.54293603
Al      11.70129992      13.18060000      16.96330003       1.43574749      -2.09639380      -0.36534334
Al      10.36809994       5.98519996      12.50619991      -0.25417337      -0.72748662      -0.69124759
Al      12.50850009      15.75230006      12.34679997      -4.04164309      -2.86701289       0.15878302
Al      14.04380002       7.44723994      13.30269998       2.21099618      -2.80325515       0.56508341
Al      14.81650004      15.11759997      14.05289999      -1.12270329       0.80748690      -0.14344291
Al       1.31569991      11.03369998      12.66790003       0.65649799       0.05897954       0.49728950
Al       1.30905993      15.89510004       2.31258008      -0.67897461       3.51532080       1.29581024
O       17.12452780       1.30257992      13.41420007       2.74608210       0.48410767       1.72841509
O       14.44560008       4.95572004       8.33156997       1.68960947      -0.28132608       0.72870354
O       14.30900007       5.26606005      13.83230001      -0.83775685       0.45297821      -2.92301053
O        5.16987992       9.24745003      13.93859992      -2.36151802       1.42420050       1.75824529
O       15.51619993      17.02397383       8.05971006       2.08061356      -0.02340328      -0.05420715
O       13.14720000      12.35440001      16.03649993      -1.85472394       1.56555839       3.25627905
O       15.48610006       7.54489996       0.57414499      -1.55621256      -0.04881316       1.00854327
O       16.45089997       9.61940004      11.44549993       0.14913469       0.69579930      -1.33628868
O        3.39138999      14.21179995      16.42130008      -2.57166474      -2.01403127      -0.85874040
O        8.61922994       3.05088999      10.27479995      -2.16765882       0.38972893       3.16444420
O        2.25684006      14.31779994       2.49092991      -6.05777724       2.73609337      -1.88415725
O        6.80739996      15.98970007      13.28850004      -0.38537999       0.51770524       1.88326245
O       16.75992076       2.98364998       0.63558292       6.15742664      -1.45065405      -2.11868116
O        0.40319893       5.73647999       0.82975891       1.29856248      -0.33397170      -0.87001564
O        6.03669001      12.09669996       8.89382002      -4.86817229       0.79578723      -1.06952399
O        0.96706605      15.07520004      14.78200006       1.31142672       0.15805990       2.02611008
O       15.30460006       1.35270997       2.28014998      -3.74941642       0.72406993       1.53115960
O        2.68200999       2.23884001      13.42879996      -3.76501910      -0.97663629       1.09695645
O        4.29116004      10.81680007       5.76481007       0.48009959       0.92620460       1.81672273
O       12.40559998       6.37395000       9.09510005       1.00506139       1.43863822       0.58454174
O       15.44040001       2.29606995       7.31509999      -0.88889572       1.96677191      -0.21225356
O        4.00996004       8.20141005       6.87580009      -1.40473306      -0.40379647      -0.27991989
O        8.19998994      12.86689992       9.22870002       2.57034016       1.68785341      -0.76155599
O       12.27200001      12.53010000      13.32760002       1.91333321      -1.28680472      -1.18786041
O       12.25059998       9.08011006       0.37719096       2.91632146      -0.93144179       0.22864382
O        6.04646997      14.28470004       9.44966004      -1.33533238       2.23474002       1.18590442
O       16.73450001       4.78242008      11.90009993      -0.19972777      -2.13618334      -1.59228795
O       15.11819997       0.04949100      17.26300921       4.03197761       1.56684678      -2.87477939
O        4.14379998       0.24458005      12.82580003       1.35864058       1.49023640      -0.08743026
O        1.85087001       7.06726007      16.28410006       0.83295871      -1.81343615       0.48187805
O       11.05659993      11.55640001       8.31517006      -3.39116531      -1.20959914       1.57245678
O       16.10859996      11.38700001      17.06159996       0.24010676      -1.94524297      -2.21296113
O       11.30559996       2.93569000      16.90419993      -3.89917407       4.10828252       2.06412418
O        1.80199992      10.21429995       4.16075999      -1.55450207       0.31303354      -0.53689074
O        1.37156001      16.55380008       0.43782105       2.07499633      -3.19888668       2.72646286
O       12.39869999       1.42433006       0.66442904       2.59056410      -3.79410550       3.73671915
Al       6.86747998      10.58639992       9.21611007       0.96920813      -0.68501356      -2.30146095
Al      12.76449997       1.00711000       5.96765999       0.61352455      -3.80766307       1.86207508
Al       9.05436003      14.08229999       4.17067004      -4.65976412       3.56704031      -0.54488278
Al      16.32879999       5.27355003      13.58680000       0.29048408       0.36200166       3.53951941
Al       7.15979005      15.92929993      15.09770004      -1.52028629       0.56692988      -3.05844791
Al      10.13330003       6.28770999       5.76108995      -0.45313973      -3.18857743       0.22593426
Al       4.55774997       0.31054594       3.62713993      -0.44137290       4.84168079       2.51100702
Al       7.95470000       9.34512007       6.77016998      -1.28702265       0.83967750      -0.79730985
Al       4.73700008      11.96469995       7.24264995       4.26653215      -2.49987410      -4.47853247
Al       0.61372093       2.93238003       4.93971006      -0.99260449      -1.14770004       0.39656649
Al      10.91110001      12.48049998       5.28737006       1.62023526      -1.27796425      -1.69968523
Al      13.94219997       0.64883197       3.09211997      -1.49699494      -3.31177687       1.89332690
Al       3.31390994       6.99201005       3.55202000       0.63349580       2.34650662      -0.24459067
Al       6.84785993       2.84349000       2.14275992       2.78914748       0.30064788       1.68529202
Al      10.66129992       4.65207997      16.29639995      -0.59261494      -4.16496081      -0.34911937
Al      10.67819998       3.70267000       4.39735008      -3.04506793       1.07628653      -0.63954493
Al       4.16624004       3.95723991       8.45027999       0.13654038      -0.82416926      -1.63891563
Al      12.68079992       3.69792004       6.17041006       0.63084999      -1.11112542       0.11126885
Al       1.20577992       3.13836993       8.78664005       1.94608096       4.06017106       0.40055772
Al       8.81798002      13.24710007      15.80099998       1.61392587      -1.22775574      -3.85850350
Al       7.19704008       2.92168995       8.75921007       3.09539707      -0.59732986       2.03548746
Al       6.83541993      11.06400008       0.36223794       0.96656412       1.15815971      -0.95473399
Al       9.60948999      14.38289994      10.98919994      -0.34946660       2.98318108      -1.97755945
Al      17.23065841      10.41060007      15.55829994      -0.20263760      -1.66185214       2.69247396
O        5.23594998       3.44518003      12.18129993      -0.31802618      -2.05656890       0.29830934
O        3.80864995       5.37565006       0.31599299       1.64607840       0.90045411       0.64978529
O        2.67677992      15.33100003       6.86949008       2.17703610      -0.47130240       3.02115959
O       13.83959995       8.59791008       9.05472991      -0.10428997      -2.01815895       2.71501301
O       12.91330001      16.77200002      16.11389999      -3.95977273      -1.78630826     -12.02705184
O        4.74881001      16.43490001       2.67348999      -0.44037394      -4.04283525      -3.75916629
O        7.21867005      16.20029998       1.84119007       1.03309014      -0.54822027      -1.61248626
O       14.68220002      11.59100002       1.68958003      -0.65693207      -1.78805618       0.60704460
O       12.67950005       7.95659003      12.42459998       1.69606816      -0.98864628       1.66937369
O        2.14252997       7.72097001       1.91215003       1.83807617      -0.25101063       1.90608762
O        4.54678002       0.89527406       9.40758007      -0.13991966      -0.72980609      -1.64077351
O        6.24534997       4.41541992       2.03637000       1.49182578       0.46272586      -1.19873314
O       12.84590001      15.63259993       9.66233001      -0.34924647      -0.40654423       1.50393197
O        8.62927008      10.66390001       9.56080994       2.04491671      -4.42052460      -1.46194526
O        0.44932104      12.08399996       1.72367005      -0.23113198       3.38375818       4.00728971
O       10.70550004      14.76340001       2.45382000      -1.93124847       2.56767874      -0.76952957
O       10.74230002       3.97131996       6.24225992       3.17453444      -3.27083920       0.10628628
O       11.41300003       9.68392007      10.92840002       0.42898382      -0.93391505      -2.84650156
O        9.04905999       4.82732007      12.37570000      -0.63211085      -1.78139247      -1.30219497
O       15.31540002      14.81070003       9.56541996       3.09774682      -1.62175795      -1.39515003
O       15.89599996       9.03029997       7.41853998      -5.03147648      -0.15398676       3.50884683
O       13.35689999      16.20819993       1.94081994       0.43255135       1.75675780      -1.65460815
O       17.17760002      10.90109995      13.64899999      -4.84094252      -0.25107136       3.11674388
O        7.74348004       7.05741999      10.04999993       1.86769631      -1.07775268      -1.37715789
O        8.88999003       5.18045995      16.39230002       2.43059235       2.37634717       0.49624961
O        3.25024008      16.64410003      15.19040003       1.37919601       1.65832044      -0.07516561
O       12.22770003      13.34649998       7.26827006       1.96292862       5.90403582      -1.61696360
O       11.62489999       8.96654994       7.34684007      -1.02345089       0.66591514       3.87056068
O        9.34424001      13.59390005      13.85840006      -3.08378977       0.15098150       3.29784295
O        4.50676008       4.85248996       7.00438008      -2.23817024       1.71931226      -0.61983800
O       14.88210001      13.88849993       3.45716998      -0.27189463      -3.20195180       3.10559139
O       13.89580005       7.38493992       3.39893007       1.03503579      -0.94972725      -3.39237077
O        9.97591001       0.07933207       1.09449008       0.02418235      -1.59874247       0.06379916
O        9.73777006       5.16737001       4.51918003      -0.61186833       0.56014140      -0.59372153
O       13.11220005      17.03360003       7.53192008      -2.80253737       2.18996534      -1.72838764
O       15.44989992       7.06767004      10.59880001      -2.06409739      -1.55588112      -3.07305147
Al      10.22629992       1.14831001      16.48759992       0.60699027       7.04625380       0.67694316
Al       4.07313994      10.29889992      10.61129996       1.58351973      -3.57903802       0.12538367
Al       0.13832005      16.40100004      13.63810000      -3.67509458      -0.86295935       2.73016566
Al      14.42499995       1.08480998       8.24692991      -2.43348913      -1.44185274      -0.04453293
Al      17.25595165      12.66040002       9.94475992      -1.63934269       1.63552350       1.56932961
Al       4.45880995       2.19967992       5.35406000      -1.47249377       3.00706810       1.76942060
Al       0.48682607      13.48289994       3.11483006       2.78467685      -2.99329332      -9.20020839
Al       1.98554008       2.40298006       2.70610996       0.27807093      -0.21523689      -2.55472559
Al      13.90769999       5.60377993      15.61870009       5.74777032       0.72461542      -2.34221774
Al       3.31179998       6.42684997       6.65550003       1.84257314      -0.33005554       1.11271149
Al      14.06110003      14.68920005      10.64680006      -1.45526886      -0.85396266      -4.40296926
Al       4.75872006       0.58393998       7.57211002       0.78184589      -0.65726279       6.34168052
Al      15.67400008      10.75220005      12.52550000       4.21026563       2.05252686       0.02921885
Al      11.17429998       9.08557992       5.79755995      -1.46658512      -1.11868198      -3.93456868
Al       3.48714995      13.33499999       2.77502993       0.85521000      -2.89118100       2.75473118
Al       2.14088993      15.89929991      16.39309992       1.43398972      -2.09421458      -4.99502485
Al      16.76460005       7.98832995      11.55389995      -1.64071068      -5.01713484       1.03446178
Al      13.23320005       3.68791998       9.38850008      -0.59909163       0.44163697       0.05177868
Al       9.89657000      16.59949996       2.95120001       1.03614913      -0.60523989      -0.03510380
Al      13.67369996      12.72390006      14.51240007      -0.03566461      -0.01318042      -0.91872258
Al       1.63073994       9.64501998       2.39285993      -3.31454018      -2.63047034       1.66956906
Al       9.52234003       6.72062006       9.14295999      -2.57213073       0.47844075       1.88651601
Al      12.79549993       2.30654995      16.49390008       1.03056868       2.19946101      -2.90467865
Al      11.48429999       1.42541000       2.39929001      -2.53182040       4.84724298      -3.27541598
O        0.10853201      13.44400002       4.61338997      -0.10950997      -2.83428562       6.98882659
O        4.43975001       2.33754991      15.51809998       0.90850936      -0.38436685      -0.13691935
O       13.95479994      14.75270008      12.33639997       1.01997375       0.28624837      -1.57386791
O       15.99749999       1.19500000      11.27089992      -0.15734074       0.60792199      -0.35071926
O        2.84784001       3.34387004       9.36268993       0.16432395       1.31239297      -2.12816163
O       10.10440000      12.67859995      11.34040003      -0.76197375      -2.20016195       0.29331466
O        3.53738004      12.78260004       7.98561998      -2.72340071       1.12978164       1.20849409
O        4.66586995       5.95333998       3.20516992       0.19777279       2.09337481      -2.89774496
O        4.29937995       8.79681996      16.63809996      -1.34916085       1.53403037       0.52199774
O       11.35900008      14.88290008      16.76029997      -0.64693699       1.02157821       0.87189952
O        9.22221000       2.95362992      15.93989999      -1.92214383      -4.81768069       0.55068792
O        9.72047006      12.62669994       3.79602993       3.03374666      -4.16300559       2.37120693
O        1.18675003      16.80372681      12.40559998       3.72909577      -0.24326373      -2.39851511
O        7.47807993      10.73339994      11.87479994       1.08240944       3.96697976       1.35832634
O        0.21302500      15.50850004       6.82014005      -1.79590555      -0.52839923      -1.59519439
O       13.65759997       0.17961792       4.83781993       2.91352955      -3.32592464      -3.08991230
O        3.51796005      14.74230008       9.55185009       0.08055360       0.55696444       0.55193754
O       13.44350005       2.66973999      12.51630001      -3.67420471       0.79352959       4.43886098
O       12.51849997       4.76867002      15.82909994      -3.17657441       0.42198973       2.04739858
O        5.76495001       5.86264008      12.33639997       0.27251706      -0.17885439       0.31310934
O       16.12560005       5.33427998       5.35736997      -0.02063499      -1.84633922       2.01402809
O       16.33360005      14.77910005      13.28260000       0.98197244       3.71907606      -2.95734983
O        5.69400991       3.91347999       9.40971992       0.69985212      -0.19514837       0.33843244
O       15.41470008      16.76879993      14.27809996      -0.13317840       1.43294621       1.57542100
O       14.10600001      11.18190001      12.43240007       1.48593913      -1.17579057       1.35789768
O        1.39894006       3.81556999      15.66410005       0.82365038      -0.89496882       1.18863084
O        1.12045002       5.08645992      13.64500000      -2.17518954       0.25798217      -2.45739453
O        4.34327998       9.93529007       8.83068003      -2.97352813       0.75825687       0.72170441
O        7.39388993       3.64997994      13.99339994      -1.38758035      -2.42094908       1.99595012
O        3.99429005       8.88006996       4.03231993      -0.27716263      -0.53925981      -0.81954465
O        0.76469900       3.84695003       6.78019993      -1.64207335      -0.58671974      -0.54516245
O        7.29376993      11.30329996       1.93622996      -2.01236091      -0.76311543       1.30324803
O        7.62976996       1.43796005       7.90208008      -1.75425509      -0.38315104      -0.89656216
O        3.97813996      14.55219991      13.64060006       0.46277918       3.27946621      -1.56417587
O       11.61889992       5.07968000      13.48090003      -1.32044579       1.28430489      -2.03094961
O       12.94639991      14.98640002      14.32210002       1.27321643      -3.25145727       1.34073302
Al      16.11700006       4.19354996       7.34345996      -0.22483251      -0.58437135      -0.97828515
Al       6.74364994      15.37679994       6.25299008      -4.88427673      -2.06520267       1.35454245
Al       7.26052992       5.51313998      16.74320003       2.53981271       2.02157475      -1.36066653
Al      16.86470001      13.35470002      13.86240005       2.85014485      -1.94647209      -1.26239325
Al       4.76078994       0.36362091      15.76960007      -0.35803281       0.79871356       1.13233761
Al      13.37420000       8.91015998       7.43301997       0.13384120       1.96324998       1.25782346
Al       3.29479005       8.81616998      14.07840003       2.39390172      -0.54605146      -1.49499941
Al       5.90132007      12.04060007       3.24724004       5.48922381       1.25630644      -0.19346975
Al       8.02120007       7.45643994      13.27410004      -2.02116505      -0.84611192       0.56285428
Al       4.48733992      13.09809996       9.42820992       0.78735492      -0.33291972       2.89252686
Al       7.21545993       0.69234795       4.38031993       3.86181900       2.06958167       0.21730849
Al       2.14233993       5.83929008      14.79099999       0.25010321      -0.68960327       1.96631180
Al       6.78349003      12.13589997      12.82180004       1.93936956      -2.85664613      -2.08834125
Al       2.86594993       6.85516005       0.57704499      -1.85679919       0.43078691      -2.22966506
Al       2.17209997      12.96039997      15.53110008      -0.14113692      -0.49166030       0.23066169
Al       6.95507998      13.57039992       8.10630002       1.28817238      -1.26851615      -1.06038092
Al       3.31234004      10.79049996      17.07662277      -2.29824345      -2.94398182       1.27281795
Al      14.64780007       6.57498003       1.75326994       0.31359552      -3.16295510       0.19259062
Al       5.62376001      15.05139998       2.37931995       3.56039097       3.91650614      -0.42345430
Al      14.23829995      13.21980000       5.61008994      -2.56596929       2.33381249       2.11672544
Al      13.98869991       9.04423005       2.37044993       0.33660762       1.69792675       2.49554556
Al      15.50069995      10.70540001       7.64038005      -1.19257917       0.77090526      -2.38780887
Al      15.02249996       0.85544191      15.49739999       1.54239009      -4.11428276      -0.34651519
Al       2.19828002      14.61389993       8.34635004       0.52435037      -1.47701872      -1.57504422
O        1.88789008       3.47937007       3.92508002       1.45805079       3.73202872       3.96258757
O        6.96399993       9.65142000      16.12390005      -1.19746690       1.56256958       1.90927425
O        6.06247995      14.52289994      15.60810002       2.80404508       1.26947717       1.48192280
O        0.45172193      13.76919992       8.50979005       1.01040426      -0.40762980       2.59752360
O        8.89750006       3.31943992       8.04460001       2.63485576       4.39377521       0.61787398
O       17.12590680       7.80582999       4.84075000      -0.77198415       1.39856343      -0.84022377
O       17.19964566       8.62733997      16.00280002      -0.35936493       1.62791056       0.08464915
O        4.26164999      11.77610006       2.76959998      -1.76566847      -3.38011791       0.78921004
O       12.70610008      13.24499996       1.23860997      -1.57597805       0.03048880      -1.45270571
O        0.70234300       0.42675193      15.79789992       0.93883865       1.94558427      -3.85780673
O        4.09809993      11.96459992      10.88700004      -0.22748891       2.70694043       1.01775694
O       10.98500006      14.70379993      11.95779995       4.87195795       1.19045872       2.55562150
O        4.46417996       2.08887002       7.13660002      -1.16604012       3.94348904      -4.19489556
O        6.98183999       8.22770999      12.37400001      -1.68352873       1.20441205       1.29300399
O        8.74420004      16.01840004       4.18808994       5.85177679      -2.37065765      -2.52237834
O        5.37607005      16.35650000       7.42754993       1.51992663      -3.57920661       0.21729989
O        7.92939000      14.70370008       7.09820993       3.36942864      -1.24542472       3.55657282