360
Lattice="17.22470062 0.0 0.0 0.0 17.22470062 0.0 0.0 0.0 17.22470062" Properties=species:S:1:pos:R:3:forces:R:3 step=0 confid=0 wdir=cand0 selection=->scf energy=-2373.45164937 free_energy=-2373.52767644 stress="0.03998480078183401 0.002593506150355131 0.0017576031340376928 0.002593506150355131 0.04756332145949636 0.0004795618223516148 0.0017576031340376928 0.0004795618223516148 0.045164488983660496" pbc="T T T"
Al       1.07505006       7.48946002       0.98530007      -2.98083486       0.50171577       1.97898386
Al      13.50149994       7.72615996       9.24152005       3.17773632       3.75784332       0.29792595
Al      16.42140001       2.09638007       7.27173998       2.85817036       3.81221092      -0.19178594
Al       1.45100999      14.82299998       8.56470007      -0.86808232      -0.10532925      -0.16373163
Al      15.39369996      14.48899995       1.77905992       1.23860558       0.70396951       3.26919795
Al       8.30900008       6.11844998      12.11470002      -0.91534253      -0.47253711      -0.69713522
Al       7.67927002      12.03039992      12.58280003       2.41985949      -2.52599499       2.70028049
Al      10.23769993       2.78269000      16.19040007       4.92822370      -0.04572140      -0.02826164
Al       4.79404999       0.91998900      12.84139997       0.26034854       1.56570392      -0.20050161
Al       5.00175008       3.78552000      13.43600008       0.87914072       1.71283383      -2.66245936
Al      14.43780004       1.39533993       9.55398008      -3.73928349       0.35564613       1.22363120
Al      13.98379999       2.47087004       1.08833995      -3.87068385      -3.12592166      -0.71091786
Al       7.19257008       8.85465000       5.85091008      -1.88022412       0.54369575      -3.86625834
Al       7.16295996       8.39139995       2.80682009      -1.94079858       1.62204665      -0.60839548
Al       7.21120997      13.12850008       9.66020998       1.97391259       2.75025850      -3.99025436
Al      15.80569998      16.34140006       8.78266005      -1.48822039       0.18907448       0.43277051
Al      14.31309993       5.41814998       3.24659994       0.71648458       1.75967000      -1.60355997
Al       7.12244006       6.70226002       9.71061996      -0.38081034      -0.86900572      -1.14708809
Al       3.88782008       4.23507004       7.97105007       0.95257259       3.91364157       1.02526202
Al      14.33330002      11.47199993       5.76610995      -1.77856455       3.45512148      -1.77181349
Al       3.03595993      13.37760008      14.33979993       1.61306337      -2.83553870       0.83122193
Al       5.86236002      13.66200004       1.84083993       1.64643175       3.68583184       4.29051639
Al      15.23120007      11.12360004       9.01741998      -0.69312345       1.09019411       2.56720239
Al      13.31789996      15.77470000       4.52143000       1.91558990      -4.20365043      -4.25976058
O        7.31025992      14.70220006       5.57590998      -2.71990626       3.96843320       2.84193008
O       12.70460002       7.20940999       5.00289001       1.22479253       0.68728293       1.23736809
O       10.96489992       3.32519004       7.61690007      -1.51227546      -0.22322081      -0.02516244
O       16.78609997       9.52059999       0.24092292       2.31896875      -0.12054938       1.94044740
O       15.36140003       1.86421006       1.88783993       2.11746615       0.51768014      -0.36119425
O       13.60829997      12.58240007       9.21206995       2.64576212      -1.59819270      -1.91216965
O       12.53630006      15.82919999       9.63632001      -1.56203722       1.21781407       0.48660162
O        3.91691001       9.45228993       1.66483001      -0.96588829      -0.11477623       1.79638568
O        8.86298004       2.06282997      10.02180002       1.22828976      -1.70285401       2.92707125
O       14.18879994       1.67109998      11.16229998      -2.69796219       1.10115730       0.80961648
O       11.16400006      11.79400003       7.86519998       0.29660594      -1.36936017       0.69342852
O       15.83450003       1.93745000       4.78675998      -0.00617661      -0.70221861       0.75769289
O        6.16099999       7.65471001      10.59820000      -3.52189901       1.70195914       1.35769871
O        4.65260006      14.41329997      14.36980002      -0.75700481      -1.34135895       0.13412275
O       10.15449998       6.31175005       0.54442094      -0.64086144       1.00649069       0.92439777
O        2.25887997       7.22952000       5.74772000      -0.12613388      -2.00951857      -0.51402263
O       15.45270007      11.40309992       7.01498997       2.36485819       1.50475917       3.98561720
O       14.60300008      13.11950000       1.06255992      -0.39733918      -0.32218796       0.32955325
O       16.08239999       5.33822995      15.53320005       1.74608729      -0.64420962      -2.94077358
O        9.84669992       3.57226993      14.65989998      -1.64670045       1.26899382      -1.13477966
O        7.18008993       5.07166996      15.11219995      -1.12886643      -1.04725499       1.21134696
O       13.39089996       0.66623196      13.31780005      -2.27509139      -0.34432045       0.23309570
O       10.88340004       0.84571196       6.24272999       1.09897993       0.60142142       2.88438262
O        1.92427999      13.03350000       8.13512000      -3.11366974       4.21368811       1.14150381
O        3.99578002       8.97705992      16.31409994       2.93634297      -2.82789269      -1.03636286
O        3.14475993       0.95990604       5.56854005       0.20800457       2.43165922      -2.47105471
O        6.84574006       9.20065996       1.23054002      -2.07574106       1.35774241      -3.00617361
O       17.08660262       3.75320008       8.03523000      -1.87839590      -1.20221638      -0.30433290
O       13.13900008       2.14435000       6.37031007       2.28141494      -0.03894280      -3.16024417
O       14.85029993      14.90200004       8.87597005       0.52208267      -1.00051314      -0.45911167
O        5.02903004       0.29236001       4.09905002      -1.29839314       0.81928793      -4.01891554
O        7.22336992      13.38809991       0.54498298      -0.20977065      -0.35575548       1.11705791
O        7.72373007       3.00020008       0.63835395       2.00705111      -0.51455913      -2.21355274
O        4.27838999      12.08909998       8.59818007      -1.03533743      -3.09731858       3.51963378
O       12.98610003       6.91660006      10.51239997       0.79198698      -3.74660364       4.13417132
O        4.89640002      12.79319992       5.94802001       0.67994017       0.57044769       2.00730770
Al       8.39877005      13.75580008       4.92633999       2.72238793      -1.42804903      -0.84317142
Al       9.99971003       8.32838992      13.64150006      -0.51333301      -1.57688277       0.75824097
Al       3.23372998      11.04060007       9.77640006      -2.96705343       7.56585360      -3.11031172
Al       7.51513998      12.28339994      16.36219992       0.50435577      -1.26392956      -0.55198201
Al      10.89239995      13.02609992       6.46763997       0.65791976       1.75378849       0.54344055
Al      10.21099992      11.60600001       9.67266998       0.46165719       3.79137702       2.70491653
Al      10.21320003       7.93002997      16.91890000       0.86211390      -0.27063053      -1.01050959
Al      16.09620007      15.78770000      15.05539995       0.72071385      -2.24125770      -1.60464818
Al       5.36910006      11.08649993      13.91150000      -4.41705776      -1.72779495       2.79547107
Al       4.02472992       1.91231003       0.71162404       3.99364653       2.25514257       3.38597333
Al       6.23410007      11.70899993       6.49028993      -1.12265107      -2.23519319      -0.45868123
Al       2.26036008       8.63244000      10.14329996       0.64451410      -0.67021441      -3.53005974
Al       4.32913999       8.37999995       3.07634996       1.06502555       2.28599552       0.09729985
Al       6.65802992       3.34230003       6.68917993       0.28481288      -0.12281596      -0.96777249
Al      15.01529998       9.48381991       0.02892975       0.24296693      -0.73322259      -0.87991718
Al      10.80240003      16.76849995       5.23932004      -0.92130123      -4.73354844      -2.37391463
Al      16.05379992       3.71161001       1.05679998       2.17604881      -0.01917987       0.87281899
Al      13.91189996      14.05570003      16.91249999      -1.12426197      -0.91339969      -0.44041484
Al       8.82428992       8.04815007       7.60039002      -2.54960400      -1.41001830       0.38789741
Al       5.23638994       0.82957603       5.67857006      -2.88100009      -0.75445742       2.07948135
Al      16.87520008       5.98596999       2.98964995       3.65073971      -2.37934736      -2.88243403
Al       8.37538993       3.58097995       3.67573992      -1.35671036      -2.86126275       1.71533339
Al      12.50370007       0.69861302       7.26900004      -0.62928883       0.99334756      -0.97012455
Al      12.62559997       6.28829001       6.46271008      -0.73447675       0.88459739      -0.07571681
O       16.16359998      16.75010000       2.17862991       2.01853428       0.17717704      -1.95400059
O       15.24320000      10.38579997       1.98104003       3.67153593      -3.18118618      -4.15013992
O        9.25457999      12.16970004      15.98900008      -1.26603772      -1.32338912      -0.76607230
O        5.48937997      14.94589994       3.20586007       3.16210450      -4.99496911      -5.67652412
O        5.83899007      15.94639995      16.48319999       1.06044912      -0.19614689       2.22698465
O        0.43505908      17.05286356       4.14556998      -1.81015566      -1.76458084       2.29394839
O        7.89012998      13.54020005       3.36600001      -2.10760926      -2.06340930      -5.52683159
O        1.26155998       6.71069996       9.02144005      -0.82158253      -0.07543114      -0.09199619
O       11.45500001      10.02940008      10.30939999       1.33217391       2.10593107      -1.28786127
O        8.21689995       3.76842999       7.25834002       1.80368054      -0.73380360       0.92130050
O        7.41119994       0.74423108      16.66309994       0.80112459      -0.53909976      -2.66627663
O       12.51179999       4.98889993      13.06530007       0.12003259       1.23564696       0.46491657
O       16.69549994      15.20759999       6.91676008      -0.22198002      -0.00465355      -0.95618482
O        9.54465997       1.56958999       1.85649994       7.82622792       2.14009308       9.68452245
O       10.23220008      12.80360002       0.89492999      -1.33472212       0.06784756       2.18446298
O        3.83117992       9.59976006       4.31689994      -0.23446463      -1.14977768      -0.15075870
O       12.48689996       6.04327002      15.97300006      -0.23740126       0.61259911      -0.29853570
O        0.99962293       1.58698005      14.12489992       1.75113289       0.07629824       3.27508346
O       14.98270000      15.36760006       0.17058103       1.03179461       2.69877935       0.23341786
O       11.16039993       8.09996008      12.31910003      -1.43489547       1.41633874       0.86887899
O       16.25749992       2.43327007      12.37780008       1.81332989       1.92017762      -2.34005380
O       15.86109996      11.84420005      13.37980002       0.38523435       0.91923585      -4.04479631
O        2.12317999      14.03579999      13.03420001      -0.06368378      -0.64094977       0.51279374
O       10.10080008       7.00854000       3.75085994       2.15015410       1.23644552      -0.71474298
O        9.32416003      13.41950003       9.58665999      -0.00232682      -4.15184200      -0.91433558
O        6.80034005       3.52764005       2.81278999       3.21761170      -0.99183243      10.33548719
O        0.21825504      14.01319997       2.57573006      -0.35342836      -0.04783562       1.09120796
O       10.33219998      14.76209999       7.02335997      -0.31260100      -2.05668529      -0.27043532
O        8.51680007       0.67923195       8.14093006      -0.31620825       1.17924735      -4.24389972
O        2.85476004       8.63895007       7.67252999      -0.94138580       2.91756350       0.23511073
O        4.55236005       0.80052399      14.69589995      -0.65101040      -0.60710736       1.64321477
O        5.30351994       8.71578998      12.81219997      -1.86288812      -0.09292713      -1.00201952
O        7.14074992      13.33190002      15.09980006      -0.68082761       1.35242688      -1.72551263
O       14.72230008       9.31433007       6.15974000       1.26981896       1.50733378      -1.37449167
O       14.73399995      13.47610005      15.18810008      -0.80143914      -1.60439666       1.84861405
O        2.88019008       1.67343995      16.84199998      -2.66031494      -2.50314974      -4.13208339
Al       4.39893000      15.94860006       3.74815996      -4.57914567       2.60278623       3.27771332
Al      14.24969994      11.10159997       2.96393002      -3.83688955       2.10539823       3.44094932
Al       1.29406006      13.81699995      11.39090001       1.94463681       3.06633837       1.67455334
Al       3.06713991       1.28785004       3.41777005      -0.75357618      -4.05584514       3.36070695
Al      12.92829997       5.37215004       0.17070901      -0.92852183      -3.41909509       1.99035315
Al       5.52057994       1.73895996       8.84930001      -1.19234949      -1.51181722       3.35975135
Al      11.01390006      16.63380003      10.30639996       2.08311053      -1.45680438       0.93088285
Al      14.88499995      13.57309992       7.64101000      -2.46678068       1.24804093      -0.40806291
Al       3.36698991       7.21121996      16.17179997      -0.31225583       4.24130542      -1.10693159
Al      15.29469996       6.53972999      16.25110008      -0.82917078       2.31178176      -0.52000021
Al      10.98740003       4.65795005      13.60570007      -0.07866433       0.81226821      -0.38578802
Al       8.05569001      10.66670005       8.27842003      -2.69787571      -1.38063199       0.89589792
Al       8.33330000       4.11888995      14.03970000      -1.13996491       2.84176916       6.34056968
Al      15.42009991       0.00067917       0.47103993       0.37296071      -0.54470897       0.65684880
Al       8.05020998       0.44066399       9.89965002       1.25518943       0.13227143      -3.67247432
Al      13.51490006      14.23480005      10.06249992      -2.47735116       0.21596655       0.36211725
Al      16.58309999       6.32318002      13.70929993      -2.08711602      -1.45960853       2.33863052
Al      13.87149994       0.99275906      14.97849993      -0.85536434       1.90810458       1.08608704
Al       8.46747008      13.08300000       1.73693003       6.14190510       1.87005862       2.45240922
Al      10.84870002       6.91096001       2.15841001      -1.65910593      -1.81297080       0.33644244
Al      12.31140007      10.61139997       8.80643996       1.95605254       0.79276901       2.12268125
Al       5.80302007       4.99087991      16.43889996      -3.28108339       1.76531326      -5.81565217
Al       4.28368004       7.02446992      12.42139994      -0.82937183       1.37186535       0.80254432
Al       2.08527996       3.63892005       2.52718000      -0.74480880      -0.49676835       7.30397872
O        3.84552000      16.59840000       9.56124994      -1.24552234       3.14152736      -0.06121458
O       15.36109997       1.03997007       8.20933004       1.76567824      -1.79505759      -1.73117608
O        1.44488006       4.26454994      15.28969997       1.46965716      -3.56407141      -0.73044488
O        0.06623638       5.22505006      12.75600008       1.78583182       0.01297968       0.83250096
O       14.19990005       7.43089001      15.00159997       2.86854941       0.99788170      -2.62853157
O        7.68566004      12.31969996       5.53480995      -0.48929289      -4.10038599       1.67296299
O       11.16449992       0.39967799      11.77249999       0.76121290       2.67775726       0.46919693
O       11.06669997       3.17434008      12.36439996      -5.13766988       0.25596844       4.12414411
O        6.32765000       0.52188294       9.89401996       0.75598499       1.15536530       0.58915924
O        1.59914999       8.18801998      11.55799993      -2.18914547       2.07849773       5.52815138
O       14.85960006      14.91689992       3.63739997      -1.88619058       1.22912504      -0.20654957
O       14.89750008       6.35304007      12.72580001       2.52854037       3.51777700       1.13387640
O        2.23494004      11.58780004       6.18928002      -0.56853044      -1.40818804       0.85674315
O        3.59766000       5.97875008       8.06536995       1.60770998      -0.98517616      -0.30868212
O        3.99459996       1.87551997      10.81610004       3.43744622      -0.03521940       1.79174033
O        2.90928001      10.91210001      17.18299876      -2.64961870       3.07410126       0.56305471
O       12.76339998      11.08690006       1.70661007       0.70804656      -1.90762025       0.15700415
O        5.70464998      11.15449995      15.89820007       0.81734711       0.62645809       0.67664353
O        9.36937005      12.51210004      12.53319996       2.49457664       0.35175508       4.39128775
O        2.61169006       4.07147001       5.72143993      -0.79308178       0.32212947      -1.01482733
O       16.80019460       8.11327994      13.77450007       0.28362315      -0.12777116      -0.31546473
O        7.57446995       9.06900003       9.13599998       1.63529390       1.26014981      -1.35035104
O        9.38755003      16.37089994       9.74190001       1.30341723      -1.08253575       0.88902591
O        2.12975000      16.21419995       7.75615006       1.16038942       0.65593375      -0.99910166
O        0.08404345       2.24357995      17.17850139      -2.57736239       0.05787331      -1.80537734
O        2.01948005       3.44572006      11.98669999      -4.55359902       0.71371451      -5.30606946
O       10.99750008       4.02015004       0.16523604      -0.66657256      -3.93081161       0.83093665
O        4.81313995       0.76956207       7.61649994       0.46299682      -2.24644477      -2.78425139
O        2.93938999       4.45871004       9.74265997      -0.67531208      -4.29484694      -0.71131823
O        0.33695993       9.17434992       7.18678999      -1.69573419       4.16176715      -1.92656855
O        9.67991004      10.92709997       3.23031002       1.48061138      -1.18982947      -1.01452677
O       13.72430006       4.31711008       4.36287008      -0.17723538      -2.77886426       2.06934069
O       17.16778797       6.04939995       6.37043995       1.08825540       0.82421397       0.28721394
O        4.82722993      12.65260003       1.17013007      -3.74569243      -1.72555387      -3.70188123
O        5.99381997       9.79049003       6.49803002       0.32263878       5.14253054       2.02666385
O        7.52083998       4.03945997      12.74020003      -1.86051239       1.76266698      -6.88948715
Al      13.51080007       8.74917007       5.10479995      -0.65919087      -1.68264910      -2.45863775
Al      16.86330005       1.37957002      15.35640004      -0.78473712       4.47963881      -1.98144024
Al       9.04100008      16.28020001       2.97225007      -2.23403367       3.24044833       1.55916994
Al       2.84997003       6.08300000       9.70440994      -2.78393306       0.14041384      -3.30799994
Al      16.50490002      12.51179999      11.94859999      -0.35672399      -2.21446247      -2.43614472
Al       8.08961992       6.48821005       0.21499096       0.76407542       1.32174556       2.78434066
Al      14.21029998       2.58594000       4.62699003      -1.16683906       2.40188254       0.51268010
Al       7.85702996       3.22815004       9.57255003      -1.68731493       5.49739944      -2.39644180
Al       8.69973001       1.61007992       0.61893293      -8.92480789      -1.73348815      -4.91513446
Al       2.54731998      10.39980004       5.01892999      -0.02249630      -0.39659040      -4.56679505
Al      12.13989993      16.50810002      13.13990007       4.15643108       5.21029552       1.45692449
Al      16.88840367       9.80303995       2.23158002       1.01627724      -2.77121933      -0.02484532
Al      10.68509999       1.67553999      13.57230000       0.98104486      -1.42981044       0.04659739
Al       6.55782006      16.91929996       0.67467206       2.86131669      -2.54437536      -0.40710816
Al       0.83835804      15.99920003       2.39992994      -0.04663820      -1.89671773      -1.77174020
Al       9.25570993      16.71820003      15.74690002       1.83085494       2.52698290       1.29531162
Al      17.10800000      16.00119999       5.41035994      -0.82284790      -0.55035984      -0.03492851
Al       6.39089996       3.71813008       1.38908994      -1.04807981       2.28526214      -8.87768757
Al       1.75085000       5.47376992       5.21137003      -0.48170121       1.94252045       4.24671840
Al       1.59749005       2.87575006      16.54769995      -1.26394629       5.48700608       1.09744586
Al      14.84619993       8.23384992      13.39950008      -2.15670675       0.65487077       1.42884862
Al       2.85462001      15.55399991      13.22279997       0.91818190       4.23503129       0.95908310
Al      13.55349993       5.76306996      11.96080007      -2.64760840      -0.28191840      -1.31599900
Al      13.69480000      13.79550008      13.81920007      -1.24766108       0.73517399      -2.01178986
O        7.25945997       9.60958004       4.15519997       1.76751725      -1.38382813       1.14579063
O        2.39980006      17.06829999      12.48430006       0.40243527       0.71633609      -1.19662593
O       12.71859992       2.52005001       2.25137999      -3.07225096      -0.05042213       0.42261461
O       13.90919999       0.90820593      16.99299067       1.34679273       0.23419594      -0.45465612
O        7.91295994       7.29385994       6.20949992       1.21110082       2.41601182      -0.76003707
O        7.36206992       6.19135008       8.18393997      -1.52527132      -0.00838566      -3.75857270
O        3.49954001       3.04639001      13.54739997       6.96086383      -2.45561348       2.18719368
O        4.22997997       5.33961999      12.38009993       2.72130139      -2.25570530       2.11199591
O       10.08329995      12.52140000       4.81489997       2.62930262       4.37124872       4.39134608
O        6.81107001       1.40433001       5.50262008       1.42566716       3.62990682       2.80520093
O        9.42209003       9.98471007      13.88230000       1.25592195      -0.89975561      -0.26997822
O        6.85732005      10.69099997      13.30270002       1.05463221       1.90590266      -0.83681364
O       14.20389997       3.99979992       0.34018698       2.29708376       0.50841435      -0.23872577
O        9.24501994      10.62249992      10.78960001      -2.07098410      -1.40402683      -1.85889728
O       13.46519991       9.15991993       3.41886003      -1.41312933      -0.82349038      -3.06617572
O        9.98877993      17.21703752      14.18780005       0.02234481       0.88962827      -0.13173334
O        0.21398297      16.43319996       8.97770998       2.34567014      -0.76827355       1.28486273
O       12.20059994      14.58700005      16.87924857       2.21195201      -0.57592427      -0.02578886
O        6.09261999       3.56115001       8.89225996      -0.18050753      -3.12919474      -0.94157788
O        8.61800001       7.82709998      16.33730006      -1.83962863      -0.91660309       0.43678641
O       15.53119992       6.32765999       9.03784003      -5.45585320       1.17818072       1.28040283
O        9.75537007       1.08779996      16.66379995       2.17802758       1.20294567      -2.73566978
O        7.97550008       7.06788995       2.19756003       3.39044334      -3.78461781      -1.34282402
O        9.02605007      10.21500001       6.85630001      -0.50859597      -1.23017334      -1.30281788
O        9.54326993       6.26534998      13.37059996       1.52472589      -2.80848641       1.05619616
O        7.47144005      14.70040007       8.83028997      -0.43991376      -0.01320890      -0.37380239
O       13.17899997      16.05330006       6.09048000      -0.65017797       5.34031856       5.39835517
O        0.99142896       1.65913001       7.20960996      -1.75602571      -1.72068969      -0.15604087
O        5.40045005       4.53246001       6.21830002       0.82948938      -0.27312172       1.53060689
O        2.46368992      12.09010004       3.15442006       3.21652890      -0.75759085       1.49914657
O        1.80414994       3.62985004       1.04414998      -0.61666603       0.85607625      -8.27647766
O        2.79518997      13.69879992      16.21149998      -0.90790877       0.29569491      -1.96938817
O       11.36799994       5.13149996       5.92066994       0.90895263      -0.42943582       1.00604980
O       13.73640007       4.18859005      10.91269995      -0.46148202       0.73849739      -0.75694030
O       13.46030000       9.56375992      12.83050001       3.11387389      -1.75291535       0.71564104
O       17.17626890      11.28170006      15.77669996       0.44446090       0.75623754      -0.15974112
Al      11.88809995       9.67073995      12.26460004       0.79061939      -0.36236030      -2.78670262
Al       5.97381004       1.59016007      15.86600004      -0.50692012      -0.63817127      -0.67000715
Al       1.70900999       8.58133000      13.49280008      -1.72531411      -1.72258452      -3.76815171
Al       9.01118998       1.40900996       6.22246995      -2.66674612      -7.77218377       6.26517885
Al       3.51148000      13.16500008       7.59984003       3.37440577       0.55117995      -2.11653453
Al       4.11293003      15.55589997      10.77289997       0.89311601      -0.33292172       1.26232839
Al      12.84429992       7.82211997      15.90300008      -2.55588596      -0.45080325      -2.55719265
Al       0.85157197      12.31509993       3.24262999      -4.55729841       1.82909647      -1.48625725
Al      16.92199993       4.02725007      11.70579992      -3.16195650      -4.33605777       6.78884234
Al       2.86652004       0.54057398      15.36760006      -0.05237495      -0.34714445      -2.48315768
Al      11.08949996      13.49090003      12.14990007      -0.06706673      -0.06456018       1.04553699
Al       6.22420000       6.14322995       6.33084002       3.74121009      -1.37305083       1.83694895
Al       0.91455495      10.56380003      17.08849268      -0.32568432       1.54946314      -2.64287713
Al      10.02789998       4.03103003       6.31388006      -2.87311141      -0.88182407       1.39792045
Al       9.03029992      11.22010005       4.96955005      -2.50692940      -3.45870607      -1.43045645
Al       6.13481999      14.59730008      15.60329993      -2.54814577      -0.58565023      -3.27729458
Al      15.72239995      15.61609995      11.69509994      -0.63235199      -3.93476201      -0.11736105
Al       3.98602998      12.61229991      16.63980008       0.59668681      -4.83950592       4.44581181
Al       5.04822008       9.06335998      11.14059996       4.12063638      -3.64412326      -0.06700732
Al       2.46579995       2.42752994       6.31540996      -2.84300000      -1.69341082      -3.43207203
Al      12.53569995       8.99442001       1.79333007       5.56403823       0.39805771      -0.33895126
Al       1.45670998       3.63177008      10.30850000       3.94086320      -1.82047702      -1.25782965
Al      12.10979993       2.64586008      11.33079993       7.48509114      -3.07559808      -4.90794996
Al       5.52758005       9.49741003      16.98536358      -0.60125028       0.22867351       2.82902643
O        3.79427996       2.60249001       2.42389001      -0.38511433      -0.63348848      -0.42566307
O        1.86274992       7.82323992      16.81590008       0.56317863      -0.13047650      -1.49944783
O       11.65170006       2.23334004      14.95560003       0.69225561      -1.13030544       0.47182115
O       16.06479996       4.15334004       2.96340002      -0.82628598       1.63894035      -3.40573245
O        6.75538996      12.06279993       8.22501003       2.59754382      -1.72857855       0.62255889
O       13.89299998       9.76040003       9.37357993       0.65542833      -0.19804201      -2.24343215
O       14.53489998      10.06869995      15.65239998       1.13749527       2.64592678      -0.06919373
O       14.03680005      15.69279999      13.95819995      -1.27156707      -2.30190962       1.83655583
O        9.61022992      14.86370005       2.42883006       2.07310482      -1.87224240      -2.65145255
O        1.69857992       1.53326000       9.94057006      -1.50409510       1.35468156       0.36130569
O       15.41140006       7.76670002       0.12968202      -0.51799358      -0.87912328       1.12364250
O        0.19012693      14.58240002      15.37780001      -1.59783314       1.24255148      -0.74890823
O        4.02490992       5.72066998      16.38430007       3.42261812      -1.60765657      -0.27954611
O        0.82899401      11.05639994       1.70999008      -0.09576859       0.82065069      -0.14596532
O        3.15691006       7.71541002      13.73500004      -0.87109170      -0.73929146       1.77889210
O        6.68426004       5.35868997       0.49521996       2.92154432       2.23229973       3.64951228
O        1.31407999       1.80728001       2.93807006       0.97722631       2.11515697       0.86312945