360
Lattice="17.30050148 0.0 0.0 0.0 17.30050148 0.0 0.0 0.0 17.30050148" Properties=species:S:1:pos:R:3:forces:R:3 step=0 confid=0 wdir=cand0 selection=->scf energy=-2368.75177861 free_energy=-2368.8395157 stress="0.03580410728459932 0.0008237060152213651 0.004870073217086355 0.0008237060152213651 0.050005245763725975 0.002964628455025325 0.004870073217086355 0.002964628455025325 0.046484139821496524" pbc="T T T"
Al       5.01900004       6.94852999      12.06410005       6.46512906      -2.04212663       2.40997099
Al      10.02659992      13.22629999       2.66403000       3.32267700      -0.55098148       0.40098570
Al      16.80919994       1.56080003       7.59163997      -1.30015115      -1.04596181       4.14230910
Al       7.71115997      15.34599999       1.88680999       2.20040573       0.04230415       1.89329852
Al       6.93936003       2.64844000      13.97900000      -0.15167338      -0.66566842      -4.72650639
Al       7.10172005      13.60749993      11.89969996       3.46729730       0.45801269       0.82248287
Al       8.49558997       3.63586993       2.11426003       1.17871397       0.10838628      -2.71406393
Al       1.17575004       0.19721499       2.07352998       0.83269781      -3.06858979      -0.63096827
Al       1.66212007      16.93089997       7.87980007       0.24917951      -1.33508442       0.94082637
Al      12.73330005      12.35910007       1.37453003      -2.33663566      -1.22944064       2.56803405
Al       5.25668004      16.25079995       0.42883099       4.06488485       0.44799682       4.06442407
Al       6.16716997       9.15399999      16.64149995      -1.91823454       0.16148051       4.24810397
Al       0.17603001      13.60739993      14.68359995       0.23618196      -2.08920361       1.41161568
Al      11.44199997      10.26529996       3.96600000      -2.23556930       0.22971886      -0.04596923
Al      12.80510008       8.91704004       6.12387996      -0.86730125       3.27036499      -1.87455362
Al       1.32113999      10.91500005       7.39268992       0.24002122      -3.47231116      -1.08563007
Al       6.40898998      16.79360007       6.18249008       0.55154440      -2.50181249      -1.82793419
Al      12.38529995       2.25599006      16.38260002       1.78575492       0.55790300       1.88060580
Al      15.72679994       2.49808999       0.52831406      -4.60782712       1.67448372       5.04027025
Al       3.45842007       1.54231998       2.66340995       2.54736059      -3.78988111      -2.69033015
Al       9.65436994       8.17511997       4.99727996       0.48601485       1.67736126      -2.22178829
Al       9.71549002      10.28729997      15.35030003      -0.97398284      -5.92546113       0.63767480
Al      12.13070006       8.73092004       1.97325004       2.67472501      -1.20023149      -1.00105510
Al       8.08425999      13.84360005       4.53738003      -3.13534094       1.44186880      -2.75855366
O        9.09982001      11.45110003      14.44469992      -3.28721497       4.52996577      -1.38762711
O       12.61740002      12.33750005       5.32495007      -1.05438426      -1.43810639       2.57748884
O        5.33081996      11.26499992       8.66346002       2.73376568      -0.90507905      -1.33304685
O        6.33295998       1.92508009      15.47800005       0.54424714       2.01225663       1.73504333
O       15.16889995      13.28610004       1.33837008      -0.47186903       2.73840357       2.51800044
O       11.33179992      10.63210000      15.46449995       0.70018018      -3.16722778      -1.36896678
O       15.62649994       5.78427994       6.15190003      -4.12862335      -0.31667187       0.89318514
O        7.82379004      11.67119995       0.35109499       2.15469470      -0.43817950       5.71687683
O        9.15636999       9.23991999      13.45440001      -0.70915919       6.28813383       2.26531863
O        2.22870994       1.45587993      11.94720004      -1.23145009       0.70297306       0.60561788
O       14.96689998      16.86600008       4.48264003      -1.10990023       0.42999599       1.62605735
O        6.08167002      15.13100008       1.99443001      -2.75901823       0.12799282      -2.46505746
O       15.37519995       6.45009009       8.61752996       0.85615418      -1.23514644       0.51792647
O        6.82619001      10.15060005      15.40369993      -0.34604832       2.07272611      -0.17778007
O       11.64199999       3.98745003       0.11330496       0.23119102       1.21919034      -0.85364854
O        3.88877005       9.30410001       3.40035007      -1.97679269      -2.04417691      -0.66334316
O       16.54300006      14.26080008       3.51119006       0.31284591       1.19064035       1.17459626
O        9.21063993       9.55185997      16.79520002       0.09468311      -0.36438037       1.41840784
O       12.78360005       4.86245992       7.99831992       2.88303956       1.31771170      -1.21567062
O        2.60635999       0.21360099       3.54230000       0.54622300      -0.61687627       0.07245212
O        6.69644006       9.06720995       1.23111009      -0.00083949      -2.05141736      -1.63296769
O        4.93263992       6.75835008      13.71440007      -1.78632353      -0.43173894       3.60341044
O        0.34474692       4.22175003      14.93389997       0.86924339       1.15962656       1.28828195
O        5.16193004       4.78057993      16.83659995       0.57461805       1.04613514      -1.29790855
O       13.38110003       5.29311005      12.75540006       0.74350799      -1.56153224       0.22996707
O        9.62972002       6.63252993       5.57691007       0.55777915      -1.10043735       2.23477233
O        2.54498006       1.16338001       0.85172393      -3.39093857      -0.95874109       1.32149188
O        3.28556003      16.80000005      12.95399996      -0.47480819      -1.15027639       0.76274211
O        0.82195997       6.51038008       6.94852999      -0.59930068      -2.41092593       0.60107572
O       13.02440002       8.46751004      11.03730006      -1.15329908      -5.94165003       2.47306395
O       11.17330000      14.78979994       3.61077002      -0.81219491      -2.99210043      -0.93332055
O        3.12165007       5.52656008       8.84611006       1.47912129      -0.66894348       1.38369730
O       10.32729994       4.47740992       5.08559002      -1.32999934      -2.37971748      -1.10605769
O        0.47638003      17.12310006      12.73089996      -0.29339315      -1.75252689       1.40693989
O        9.41425992       7.04974000      14.09709997      -1.74976190      -3.48828223       3.40225884
O       12.44260007      13.87780002       7.96000000       2.89324361      -1.78451077      -2.33681645
Al       2.01478993       2.53851002       6.03092004      -0.20147506       0.18035753      -0.35509125
Al       1.31500005       1.21464001      13.50210008       2.99319165       1.32152812      -0.52868612
Al      16.23869998      12.12090002       0.89090299       0.15305862      -0.55389218       0.80010609
Al      16.08839997       3.31693000      15.16929993       0.34407052       0.08970197       0.79629537
Al       0.02383144       6.54663000       8.94846000      -2.05882383      -0.72586024      -3.74987815
Al       9.99785998      10.21700007       1.07221000       0.97143198      -3.33327817      -2.01255833
Al       0.34045605      12.86539994       3.35922003      -1.76306976      -0.48257685       0.66950885
Al      13.63929998       4.33912995      14.28749995      -0.87492388       1.57755060       1.50230257
Al       8.42842994       7.23942996      15.99929997       3.52539046       1.07464797      -1.18938488
Al      14.40240002      17.18003048       6.17880992      -2.54784372       0.44016876       1.96825289
Al      13.09550007      16.43489995      11.35829997       4.32520709       0.85653858      -2.91294462
Al       6.55963998       3.81159009      16.50309991       3.28737168      -3.94273776       0.82294053
Al       4.50383004       5.76669000      15.08979998      -3.93782530       0.35718578       1.14696883
Al       8.04545998      10.95149995      13.04309996       0.66786407      -3.74877568      -1.20259942
Al      15.28240006       0.75401502      13.37669999      -0.07720385       0.97297257       0.63384100
Al       3.05804996       8.23226007      16.11890007      -3.15235308       1.12497693       3.41067282
Al       2.20831992       4.16768008       1.69154996       3.07709767       0.67051731       0.48958578
Al       2.17123992      15.72519999      12.17379993       0.20483497      -0.54032588      -0.93431720
Al       0.66232807       4.28785992      10.88860000      -0.34467617      -2.36650218       0.33551517
Al      14.30820000       8.07846000       0.74669207      -2.49416573       2.36039160       3.03692532
Al      15.79670002       9.51529000       5.29047000       0.80749095       0.32760291       1.93834793
Al       8.98127006      15.68799994      14.43580002      -1.28272716       1.22894194      -0.96917593
Al       8.59369004       1.07928002       7.88663999       1.59618099       1.57044118       2.14239445
Al       8.36560991       2.12414000      11.10480004      -0.51102343       1.75293424      -2.33482468
O        0.58284594       1.23832993       6.33626005       3.75880006      -0.91289321      -0.98804413
O        0.25407205       3.91941996       6.58479006       0.75563861      -1.60290855      -0.55027434
O        1.40979001      13.05830001       2.12238002       1.73362852       0.93568508      -0.99092454
O       11.54410009      10.21900001       7.13425001       3.76760177      -1.64466164      -3.27779959
O        3.01842005      10.84870003       8.25855009      -2.17893163       2.44443437      -1.60780241
O       14.33580001      14.89140007      10.44509992      -0.15614405       3.10712087      -0.76838814
O       10.25660005      15.58249992       8.15239006       0.70010468       2.47275695       0.02471863
O       14.49110003      11.01420009       6.74372994      -1.56455319      -0.15297591       0.04042242
O       15.60510008       1.31163994       6.37639998      -2.48662777       1.07664898      -1.31953862
O       16.28670005      12.07030003      10.46280006      -0.24082531       3.61057714      -0.28661319
O        6.93920000      13.51030000      10.27669995       0.33040090       0.80605686       0.61158877
O       12.82139992       7.39652007       0.95378495      -1.82087388      -0.48520724       1.88964243
O       13.71990008       9.31436007       3.09193005      -2.36532816      -0.15127032      -2.37206942
O        6.46016002       9.72768999      12.61439994       0.73663857       1.34075047       2.82617427
O        0.40043896      14.34759999      12.35520002       3.17971752      -0.51416181      -0.89167573
O        8.31877002       7.77385007      11.31600007      -2.04272104       1.43713824      -8.12444651
O        0.74631094      15.95270003       0.82153801       2.72740713       1.71425742       0.26664924
O        3.59369996       5.95660003       1.75209998      -0.31837704      -1.94028283       1.22635908
O       16.45659997      10.41460000       0.36250000       0.53856747      -1.38955073       0.75182586
O        7.94095994      17.26269954       6.83803999      -0.32688552      -1.82852449      -0.16174967
O        1.42852992       6.97302006       3.77737004       1.01657256       0.10303549      -1.54992288
O        9.53867007       3.49858007      10.23249994      -0.80132771       1.11566452       1.72031687
O        2.36446992       1.13186005       8.28777998       1.90152805       0.28465258      -1.16769583
O       15.38280006       2.48064002       2.85770998       1.72831455       2.33701072      -0.59874061
O       15.48300007       9.95978002      14.83620006       1.21009249      -1.88986835      -1.70467343
O       10.04940008       5.36060000       1.99435008       0.93901668      -3.17192115       0.89810005
O        8.09325002       4.11970008       3.63300999      -1.36260755       0.19908783       3.65841306
O        6.15513003       5.58146997       2.73671996       1.36314879       2.81734051       0.01395121
O       11.67960004       3.14087006      12.06560000      -0.17042987       2.99382252      -3.58485372
O       14.02539994       9.21246998      16.79390006      -1.98889896       1.45682754      -2.29637977
O       12.64310008       0.17023192      12.73930004      -1.32545714       6.29238804       0.26571422
O       13.27249994      11.37549995      11.81619995       2.99933472      -3.36645973       2.90568409
O       16.35619997       2.10141008      14.02110008       2.13082313      -1.90455085      -1.61648576
O        8.92168004       1.38581999      16.65329993       0.46848171      -1.38743710       2.89618986
O        6.09717992       9.19372004       4.40179998       9.29697680       3.10852047      -0.78601689
O       16.71921345       0.17060492       9.06426004       1.55944611       1.45878810       0.56701995
Al       3.20074000       5.77448007      10.64780003       0.44658314      -0.78136359      -1.80259101
Al       1.43978009      10.26479997       4.30148994      -0.57402925       1.25047036      -3.39197912
Al       0.31503798       6.66209009       2.35247998       0.04633604       0.88059278       3.40602889
Al       1.67333997       4.93605002      16.05009995       0.79633845       2.12244831       0.18005122
Al       8.85226005       8.57387006       9.55945005      -2.72389657       0.04846881       1.50326964
Al       8.83614999       5.71084000       4.17422002      -0.67615194      -1.58437353       1.41088981
Al       6.65649009      10.80529999       1.29679006      -0.31431144       0.70854322       5.74394047
Al       5.08832004       3.12380000      11.18310004       1.01014776      -2.32045806      -2.42926365
Al       1.95625991       3.91278003      13.59459998      -0.30655394      -0.63306221       0.26900751
Al      14.10070003       6.39838996       6.53143999       1.08886897       2.62093020       0.22430578
Al      14.34540005       5.01694993       8.71786992       0.93858862       1.56727365       0.95819149
Al      10.56910005      10.74609992       8.30415992      -2.36977257       2.71492752       3.03951764
Al      16.66319997       1.35768004       4.93408001       1.28327085      -0.39699236      -3.00031124
Al       2.90748993      11.16660003      10.03940004      -1.88448256      -0.02423984      -0.84614916
Al       6.39503003       8.55661005      14.19339992       1.12939309       1.88345801      -2.40475968
Al       9.63301005       5.41191000       0.30816103      -1.97773167      -0.70073720       2.42365253
Al       0.33433704       8.21712992      17.16462940       2.29744874       0.34354547       0.57945025
Al       3.31792996      14.13820008       9.49304000       3.44567776       3.33135211       0.64739965
Al       1.51369008       1.96341004      16.49850006       0.39382649      -2.18598060       0.01506332
Al       0.93455908       9.11622002      10.84419999      -2.08166346       1.61324993       0.28816486
Al      10.33420007      16.51959992       3.59871001       3.43364532      -1.39362036       3.43312116
Al       6.82481999       3.60857009       8.65420996       3.69845666       0.53871134       0.45122841
Al      11.05699997      14.17669992       8.85333008      -1.88094994      -1.22048558      -2.87064654
Al      16.54400003       9.72064003       2.30747999       1.78804245       2.26904536      -1.07747143
O       14.90220009      15.97600000       2.05035008      -2.57303768      -2.21319977       2.59478191
O        8.31519002       9.84483999       8.43821995       2.52975413      -0.01247035       1.52794932
O        8.21445993       2.31342998      12.75640003      -0.06972917      -0.67151863       1.24432226
O       11.53350007       1.18661994      15.33830005       6.22991655       1.87683422      -6.06328320
O        8.36818008       3.59091994       0.29633406       0.31954759       4.19984397      -1.62968962
O       15.40909993       0.72391492      11.60120005      -0.28426185      -0.74042064       0.97895237
O        6.79099993       7.78554002      16.00690008       0.49806318      -2.89409512      -2.86918318
O       10.46679994       8.58450001       2.01467004      -1.12519888       1.43528732      -0.20264044
O        9.30324000      13.12209993       5.21468999       5.32031790      -1.36699682       0.91589521
O       14.55140007       9.29944998       9.48862993      -0.61327945       1.35027376      -0.57937042
O        7.45921000      15.46979996       5.17441996       1.33250215       0.84677931       1.46447228
O        4.91598005       3.64403006       5.18799999       3.68297591       0.53411842      -2.61639245
O       13.38919995      14.99720008      15.19109995      -4.28081358      -3.01780216       1.96805282
O       10.00510007      16.17699999      15.97920007      -0.39112950      -3.73130772      -0.81612877
O       14.83230000       7.09273002      12.72850003       0.04928373       2.23918220      -0.63322508
O       14.02370000       2.75908000      13.74029996       1.38150221      -2.87201626      -2.78846670
O        0.01267383       2.68979997      10.62090000       0.04328280      -2.83804584      -0.47190548
O        7.57946994      11.05649998       2.83723000      -1.60848551       1.45077875      -4.47634788
O       10.25280000      10.99579996       2.53293995       2.00480893       4.39080928       3.83182977
O        8.18147999       5.36744996      11.90240005       1.21388280      -1.60644351      -3.52385473
O       15.57820005      17.02937650      14.80940002       0.56157049       3.74898662      -0.19237875
O        3.08411992       6.54406001      16.18849998       0.83106204      -1.06371247      -0.40098643
O        5.43109003      14.34249997       8.55398002      -3.36242889      -0.03525203      -2.52729470
O       12.68830007       4.33881993       3.20562999       2.86708010      -0.17416621       0.49805638
O       15.30299994       4.73400006       1.49653006       7.31292606       3.61338807      -6.33284440
O       10.84890002       4.06446996       7.47176999      -4.33087227      -3.55470892       1.43503692
O        4.50567998       7.08255005       4.59305997      -1.67990219       0.23506572       0.01311840
O       13.75970005      12.35249993       0.12598692      -1.36200958      -0.37808783      -7.95540471
O        3.79646997       7.38954001      11.23970001      -5.12218253       0.69387796      -3.37370879
O       16.47819999      15.01490005      14.66029998      -1.22669609      -3.15002896      -0.17471259
O       11.13930001       5.33608000      10.53060003       3.51961669       0.55634177      -0.82204922
O       16.16029999       6.93967006      14.84310002       0.00063243       4.24626616      -4.85095636
O       12.83599998       7.55514007       6.95202002      -0.70527498      -5.49779778       2.95662294
O        2.05731007       9.39916004       9.57181005       1.05175853       0.45817268       0.74031605
O       15.05850008      16.40199994       7.54500993      -0.20744772      -0.66864534      -3.05004479
O        6.25837008      15.85459996      16.34599994      -0.11850579      -0.86546134      -2.01772736
Al       9.75398000      14.08549998      16.63950001       1.72224867      -1.00341064      -0.24622094
Al      17.06541154       0.55042601      11.11889995      -0.23141479       4.06082890      -2.83986405
Al       4.27645006       1.35174994       7.76952996      -1.44218555       0.89269302       1.53625880
Al       5.40342999      13.86879996       5.88568008       1.48699871      -3.33484976       0.93332610
Al       9.39463007       7.96824006      12.45849993       3.76765168      -2.04733932       4.04670829
Al      10.33470005       0.62875801      16.06089996      -5.21301476      -3.58445249       2.79184069
Al       5.32682008       4.98076991       1.41367000      -2.46136349      -0.51237905       0.57185623
Al      12.70640002       4.46899997      11.27519995      -4.22194447      -0.00241940       1.97827004
Al      12.56170001      15.58340007      13.50930003      -1.74643593      -0.96179579       1.54449579
Al       9.37125000       5.42025992      10.71119997      -1.61028084      -1.88223355      -1.01609327
Al       0.41814897      16.23459994      14.52400005      -0.08436149      -0.33333284       2.11125738
Al      17.18630000      10.47789994      15.54889992      -1.73428815      -0.73234016       0.29280543
Al       5.63552002      12.90080005       9.45573994      -0.12971406      -2.56578832      -1.26895616
Al       6.70985002       1.53245005       1.85557999      -3.05189077      -1.84833541       2.46526172
Al      13.00840000      13.29549992      15.76270004      -2.16087823       0.14443111       1.90584383
Al      10.65900003      14.08149993      12.08600006      -0.84333659      -0.59449104       0.08610313
Al      14.79700006      16.29049993       9.14538002       1.36480136      -1.68516157       1.46821580
Al      14.22790007      10.71209994      13.40370002       0.04067869       2.32717901       0.66999464
Al       6.36623006       2.84973999       4.34704995      -1.02109502       1.50979616       0.92519664
Al       7.57871996      10.39989993       4.27657999      -1.36967352      -2.72963869       2.96883127
Al      12.39770008      13.73969998       4.37711995      -1.27174424      -1.34886275      -0.37656852
Al       7.45671994       7.40520008       1.96181995      -0.29646100      -0.01893497      -0.79636980
Al      12.64669997       2.08033998      12.73910005       1.95488252      -5.11754977       4.43734466
Al      13.17169995      12.24069993       7.07457003      -1.43909988       0.91940833       0.99368496
O       11.85710007      15.48800008      11.90870002      -3.73858808      -3.27585010       0.10489338
O        5.23545008       0.05584827       7.22614007      -0.52950889      -0.33977078      -0.58889020
O        4.65291001       4.78567994      10.96389992       0.75042871       1.20284904       0.42793841
O       14.20969994       4.83762003      10.47779994       0.20864780      -0.56859424      -0.41904603
O        0.45891293       6.38292002      16.99839995       2.72657141      -0.83312551      -1.22605129
O        9.16709007       9.76666006       4.71979998      -0.92179079       0.94144815       0.74882823
O        9.44755992       2.19187008       2.41922998      -0.48727278       0.12023379       0.07479338
O       13.95179998      14.47330007       4.40537997       0.36367529       3.14952676      -0.73542412
O        7.70499995       5.21597992       8.78774007      -0.11799417       0.57070480      -1.72873681
O       16.74679997       4.68989001      12.07990008      -2.66681892       2.87951559       0.33329572
O        7.12321004       7.28395004      13.38660003      -0.00166151      -2.06890008      -1.03799350
O        2.25044006      10.06790002       5.76908007       0.64294447       0.79527116       2.04925869
O       10.20740002       7.61649993       9.36511992       1.64545799      -1.21718424      -1.05644844
O       10.29909995      16.53479997       5.52388006      -0.04789627       0.90760765      -3.54308421
O        0.78721693       4.93717005       9.23924995      -1.53215867       0.42746178       0.37187578
O        5.44092000       2.54009994      12.67959999       1.43484934       0.00863550       3.79743919
O       13.04779999      11.96350005      14.68819998       3.00016990      -2.02794349      -1.09195496
O        4.14256996      12.50119999      10.34110003      -0.34074548       1.20955450       0.98187009
O       16.66120003      14.67099999       8.83516006       0.75951779      -1.45443392       0.04887570
O        1.70551994      15.07369996       6.22216999      -0.00903797       0.26790859       0.05567087
O        2.19357003       2.38281001      14.67829994      -1.81859718      -0.41249725      -0.43923268
O        8.40723008      12.16520003      11.64979992      -1.78716969      -1.52684390       2.31621084
O        1.97649994       3.44555006       0.07751974      -0.39185093       3.03588092      -2.01505925
O        5.35537992       5.60353001       6.93110008       0.20476913       0.29686605       1.09983207
O       10.56310006       6.47871999      16.64930005      -0.70523081      -0.76684135      -1.40628418
O        0.76974308       2.60413999       4.22717996      -1.94605060       1.05377827      -0.34158203
O       14.11949997      15.93620002      12.94500006       3.50114082      -2.37795817       1.28451702
O        6.98907994       1.30557006       3.79030995       0.04071105       1.84339388       0.16860075
O        3.50707998       1.48173000       5.78355003      -0.23971031      -1.81965914       0.47252629
O        8.42363995       6.78589005       0.46500703      -1.94298459      -0.44862250      -0.11931825
O       11.17969997      13.58610007      13.74410002       1.94156472       3.41367999      -1.34296056
O        1.76056996      10.42420005       2.39897006      -2.69797709       0.33077258       3.50733724
O        1.27515007       9.11816996      15.69670001      -1.97048720       0.17632495       0.49832414
O       16.31030001      11.75130006       3.06226004      -0.02233369      -2.82351281      -2.56101026
O        6.58347003       8.09718000       8.00850006       1.02259855      -1.90486559      -0.94879531
O       10.83200003      11.74530007      12.22680002       0.37998079      -0.29475450       3.76013808
Al       4.68955005       8.91229002       4.96519998      -5.17544146      -0.92759733       1.66097271
Al       4.46352004      13.01810004       0.14654805      -0.97790491      -1.65677688      -0.41252778
Al      16.26749995       6.14505993      16.23560008      -3.95595604      -2.86814712       2.52350849
Al       3.92137993      11.27469996       6.80295994      -1.72298650       0.07514982       2.22009255
Al       6.55396005      14.09410006      14.95880006      -1.28668828       1.88159491       9.85049529
Al      14.89039993      13.97770004       2.92773999      -1.05275668      -3.73279850      -2.70746084
Al      11.22509995      11.81069995      14.18300007      -0.93747196       4.52458655      -3.11467097
Al       2.14838008      16.16809992      16.88260008      -2.76553333      -1.37012547      -0.06013833
Al       3.13382997       7.03609994       3.35914997       1.28809105      -0.16731816      -0.79011196
Al       0.49305599      13.04249998      10.94069994      -0.94427085      -2.10716097      -0.54381707
Al      11.30160000       5.16466006       6.34722995       1.17315919       2.93766063      -0.39696921
Al       7.26939997      11.73259995      16.23000008      -1.81782026       1.26002527      -8.31212635
Al      17.08022752       3.96257001       3.21984996      -1.31514734      -1.37770476      -0.58066671
Al       5.87488007       9.65175999       8.00396992       1.55444950       1.64105789       1.49266532
Al       3.13776998       9.60986008       1.78446005       2.15508792       3.73210605       2.26195833
Al       7.94100993       5.66663999      13.44810003       2.17677342       7.91509274      -0.48445760
Al      11.59289996      17.20012155       8.21888004       0.08266390      -1.13480067      -1.80061528
Al       7.04497994       0.15744892      16.02970006       0.73012612       2.02287929       1.75002397
Al      13.28690001       8.16621004      12.76690005      -1.69498514      -2.72503716      -2.71158873
Al       8.93910009      15.91049995       6.20767996       0.85677962      -1.03342172       1.11570729
Al      16.26930007       8.01267000      13.29519993       0.19052505       1.51196035      -0.06897889
Al       4.46848995       4.35477999       7.90931005      -3.05217711       3.91818376      -2.21367173
Al      15.14340004       5.49507005      11.93379994       0.56198245      -0.68488365       0.29457147
Al       7.27992006       6.67829996       7.10158995      -2.82178597      -2.55468009       2.88886283
O       16.73357841      11.88690001      14.75499998       2.53445293       4.14358636      -1.85178754
O        7.56039994       4.41798996      14.28059999      -3.81768330      -6.40472106       6.59634105
O        6.98603004       2.69831008      10.10269998      -3.31979439       2.36804381       1.59801254
O        1.46777005      12.55689999       7.01243008      -1.22572397       3.45674192       2.58360344
O        1.69965005      17.27645205      15.58649997      -2.56113549       1.94455774      -1.47051920
O       14.56790007       8.31641992       5.45637004      -1.04878972       0.99833418       0.64419995
O        1.46959992      14.70730008      15.38330004      -1.04517450       1.32959692      -2.07346178
O       17.02509999       8.07690001       1.50598997       0.16388785       1.42753096       3.05047962
O       16.54199992       5.48442004       3.92638999       1.57420913      -0.87178959      -1.10349997
O        0.62585308       7.62947998       9.99637006      -0.27813001      -0.26542908       2.06751781
O       16.72509995       9.25922995      11.95240005       0.63562701      -2.93891204       2.64604186
O        1.08615005      12.25930005       4.80729000       1.22377289       0.15597191      -2.28811983
O        7.95024996      17.23957967      14.63229998       1.68393640      -2.85481361      -1.79920613
O        1.27918005      10.94420001      11.11929994       2.01234369       1.74542552       0.30539807
O       17.14131541      17.22171084       3.27020999       2.15666107       2.82961301       0.52733226
O        8.33380000       7.17432005       3.40469008       0.76949403       1.34556463       0.27067157
O       10.47340008      13.63130006       0.97807503       0.30151760       0.28718920       0.17174397