360
Lattice="17.07158839 0.0 0.0 0.0 17.07158839 0.0 0.0 0.0 17.07158839" Properties=species:S:1:pos:R:3:forces:R:3 step=0 confid=0 wdir=cand0 selection=->scf energy=-2369.79692018 free_energy=-2369.89863163 stress="0.03131619461214397 0.008240962543447444 0.0073754583961533745 0.008240962543447444 0.04299833936885269 0.009163325659233088 0.0073754583961533745 0.009163325659233088 0.042531513451978094" pbc="T T T"
Al       7.91895998      14.01490000       1.26013998       0.45310321      -2.09518585      -1.15840491
Al       8.07896003       6.56808007       7.62448003      -3.34836942       0.79403518       1.13273669
Al      11.55959997       3.47023993       6.51282002      -1.49103946       0.50298613       0.89490400
Al      13.54870002      13.56529992       7.55800002      -0.25770574       0.11007463       1.76694514
Al       9.88278998      11.43150006      16.70220002      -1.31031907      -2.77128250       0.20457878
Al       8.34651996      13.62050005       9.01938996      -1.99099478       0.74471036      -2.83282465
Al      11.53730004       9.95956006       2.01349996      -4.10284560      -3.43419666      -4.91597346
Al      16.09329999       9.18107992      10.45729997      -2.71056206       0.25957849      -1.06240293
Al       2.00345008       6.44148007       1.56005006       1.39318958      -1.20216288      -1.33283929
Al       2.29339001      12.58420000       6.08020002       0.47721175       2.23281893       0.49534463
Al       9.75823994       2.75324005       4.42882004       0.07172751      -3.60069759       1.23651256
Al      16.02789993      13.89670008       2.39466994      -0.27041988      -0.83882304       1.55713494
Al      16.20209996      15.87220005      13.68459993       0.64674657       2.36261663       0.64049131
Al      13.60849992      10.57500004       8.95855006       0.52061192      -1.32010340       3.03307710
Al       2.52603001      17.00849999      14.98540000      -2.27427328      -3.79584580       0.42785788
Al      11.60350007       1.87493995      10.03859998       0.46536115      -1.69281115      -0.59426174
Al       8.05394008       9.18835993       1.39261004       1.62040105      -0.93314779      -0.99963770
Al      15.50289994       8.55948000       7.24924993       0.52913423       0.17249985       0.20077744
Al       9.11162997       3.32560005       7.66383004       1.45838964      -1.49696679      -2.15546210
Al       1.48435993       6.57959007       4.85067998       0.66570754      -1.77130019       0.29266415
Al      10.58519997      15.02700005       2.24949008       2.75341176      -0.01306443       1.11706417
Al      11.45189993       3.74076998       1.98709994      -1.67018192       2.03353854      -1.17589000
Al      12.06379995       2.07524004      13.37429992       2.39920809       1.13582263      -5.12722585
Al      11.39699992      10.96029998      12.78790007      -6.18681797       5.25832959       0.19449341
O       15.70270000      10.73679994      12.12160008       1.52909220      -0.02473954       2.84299102
O        3.56642997       5.46459001       5.62168003      -1.57440597       2.53534473       1.43744956
O        6.91099997       1.90199005       8.23238000      -0.27780992       4.59727864       1.05645014
O       15.53829992       4.07638000      13.28919993      -0.51463886       2.64712361       0.50026116
O       15.43769995       8.28052000       2.61548992       1.34740537      -1.00297833      -0.74083709
O        7.39201006       1.31760995      10.52029994       1.00526833      -0.48858454      -0.61466900
O        6.10629002      14.04079999      14.28040008      -1.10308904       0.13094025      -1.18479397
O        7.39271000       2.24726992      13.20100008      -1.29930636      -2.76838873       0.83507735
O        4.80813997       3.45466996       4.15229001       2.01324445      -1.86882847      -0.85303671
O       16.76961931       8.46980995      11.81399993       0.28239435      -1.40901500       2.78460026
O        6.22859992       6.04830005       8.06982997      -3.69104858      -2.01132050       1.81663799
O        7.27148004      15.56840004       9.68759992       0.66896475      -0.52239611       1.07902921
O        1.02524005      15.84720007       7.69054998      -1.14247471      -0.91692030       0.70793616
O        0.02725018       5.89596993       3.73627998       1.36207571       3.09647259       0.69894551
O       12.66279999      15.28880002      16.40339993      -0.38694557      -2.23286464      -1.26595459
O       13.75819999       1.68279000      13.84520005      -1.26553936       2.54096539       0.04543656
O       12.41320005      11.19300007       5.46521995      -3.34764356       1.21505127      -1.03117486
O       11.48569997      16.61089997       1.33374004       0.46849853       0.02208996       2.53248758
O       14.50949994       7.90805994      10.08620000       3.44034236       0.77789640       3.68006161
O        2.52467999      13.24330006      13.65869995       0.66353136       1.49289884      -1.10099616
O        3.92639995      12.26339993       6.67202999      -0.24973020       1.58290869       3.01977618
O        8.06393003       4.19086002      11.06689993       1.87639034       0.50777240       0.63605580
O       16.36740005       8.41462006       8.80480999       3.95234284      -1.62573151      -1.45344135
O        8.97958994       3.01467999       2.85727004       0.14249946      -2.97805578       0.61839146
O       10.30299996       7.06044004      16.58430004      -1.11783111       2.12737229      -1.35802811
O       15.76190000       4.61304006       7.87151001      -2.50674266      -1.50525476      -0.33289869
O        3.92232001       0.49309200      14.23999999       0.16382156       1.26453363       0.57474391
O       10.26979998      15.88650006       3.67855002       0.93865481      -2.19858844      -6.56625558
O        0.24463296       5.59866992      15.56410004      -1.38311013      -1.18383180      -2.56170476
O       13.28610007       0.90849206      16.58050008       2.95195876       4.26691978       1.94272678
O       11.08660003       3.21415996      12.07069994       0.34175384      -0.41850173       2.63200024
O        3.05829004       5.30514001      11.28989995       3.59803086      -2.63169246       3.68897517
O       16.22260003      15.63609998       2.12584006      -0.00372669      -0.82364729       1.51092187
O        3.43951995       8.00093997       7.16263006      -0.23869810       0.09781798       0.63309540
O        0.79879908      12.95129993       6.80606006      -1.68200914       0.61666094       1.31524043
O        8.00365998       4.51061002       8.63792992       0.71873217       0.07570569      -0.93193540
Al       0.05831160      11.60560005      13.50999992      -0.13157984      -0.72409497      -2.60190389
Al      10.40459998       8.74382004      15.52549999      -2.46807187      -0.48455884       2.53500650
Al      13.66070005      16.94310847      12.65189995       3.14498293      -0.39050239      -0.19822082
Al       9.06464998      15.96099996      10.38499992      -1.83715753       1.88350491       3.79727610
Al       8.15017996       0.10221204      16.74250006      -0.00020912       1.65080426       0.75109993
Al       6.01521992       9.38183992       8.57426997       1.29071115       1.08933880      -0.31182975
Al       2.67837004      14.84120005       0.31375599       2.69053903      -3.13955573       0.67714959
Al       0.39018908      14.86700000      16.02179991      -0.57036280       3.34543678      -0.44522797
Al      13.24710002       8.47829999      16.73860006      -2.20825238       5.80448659      -2.50705493
Al       9.80991000       8.38354994       6.09266996       2.32454210      -1.39657948      -1.92585807
Al       4.25240992      12.95229998      13.93930001       2.44374423      -1.82306458      -1.20635315
Al      10.82560003      14.67249998       7.60135008       0.35299290       0.10275969       1.57999100
Al       3.99199001       5.14026004      16.96451334       2.43697779      -0.12791853       1.95710754
Al       5.58798994       2.23909007       0.47779501      -0.15839224       1.05260012       1.20191531
Al       7.73069996      13.95070008      15.47999994      -2.69312310      -3.69963033      -3.39193004
Al      15.83060000       0.25075108       2.07947004       0.62761431       1.86942667       0.26651304
Al       2.62340994      15.24979998       7.47285001      -0.70276597       1.35717804      -0.66839054
Al      16.54739998      15.92419993       8.84733003       2.08390774       2.75086105      -2.91172412
Al       2.07900006       9.80212997       6.23017000      -1.57402244      -1.24535920      -2.59771856
Al       5.03502002       8.33984992       0.67250108      -1.42041684       3.96186803       1.17153915
Al      14.98110001       0.11360698       5.98388997      -1.18894007       3.26512035       0.78878033
Al       3.53106993      15.82080006       4.37017998       3.89281083       0.20359941      -2.01857106
Al       9.55882006       4.57830006      12.21599998      -3.51069814      -5.31816658      -1.43786823
Al       5.46760997      11.77360001       8.38007997      -0.24548446       2.67781939      -1.19266629
O       15.95550001       0.80039101       0.49422607       0.16204004       0.13593179      -1.25657900
O        1.79682002      10.98730007      14.67539993      -1.13047999      -0.47282843       1.41689291
O        4.84927994       3.43481007       9.77567003      -0.99201985      -1.41844573      -1.29022735
O        8.24735008       0.60039206       1.64361992       8.29628166      -1.70130254      -6.19332038
O       10.91070002       7.97938999       2.14037993       0.24798626       1.16499749       1.28852325
O        0.15254198      12.81760003       1.80056006       1.94844288      -2.41183272       0.19538433
O        9.91135996       0.91760505       4.39533992      -0.98577862       2.86443054      -2.60587998
O        0.29175106      13.69109994       4.01870995      -2.50339088       0.52832784       2.04394457
O        7.67969996      13.32620003       3.56810998      -0.23124021      10.29025455       2.95979950
O        2.36507003       5.52783000      17.01524993      -1.49301768       1.34978934       3.10242674
O        2.97406002       9.23661004      13.10699998       1.33071872      -4.05195215       0.43374534
O        5.89081994       1.78047995       2.09604996       0.98220309       0.75718796      -0.80765778
O        5.39131004       7.53836001      10.98290003      -1.80534385       0.56668369       0.66045394
O        8.30702996       3.66747994       5.50305008       0.01037132       0.34692887      -0.01622656
O       11.58809996       3.48748002      14.98579999       2.19583050       2.44097029      -1.77814765
O       13.01430006      15.06810007       8.56906006      -0.20821671      -4.12597384      -1.18780078
O       13.34620008       3.93204996       0.48495500      -1.01989065       0.73349376       1.15025476
O       14.06879996       3.78046006       4.93357006       3.10010830      -0.20132088       2.43938466
O       16.39600008       1.97513003      12.21719995      -1.89644270      -1.33812093      -0.96536121
O       16.39819993      14.58850008       9.76653007      -0.41011917      -2.57610064       1.46526048
O        8.05377004       7.25830999       1.61358007      -0.15935596       1.94648135      -1.19507847
O       11.06840001      12.62079995      16.70549996       2.00436050       2.22105685       0.85433208
O       15.88780006      15.81139993       5.79361005       1.60636091      -3.09242038       0.05659293
O        3.85089999       9.89031001       4.60068006       3.15544868      -2.49316962       1.04499808
O        1.24446007       5.22026007       6.51590998       0.15087486       4.97680516       0.49689910
O        9.37361995       8.33673999      14.18010006      -1.85402910      -3.57489882      -0.10546874
O       16.19880002       2.69978993      15.43870001      -1.77505158       0.02204411      -0.86452566
O        6.98876003      12.57149994       8.61041001      -1.81608273      -0.95145577       1.10779828
O        6.57103994       1.10365992      16.64140007      -1.45483456       0.09435181      -2.04697470
O       13.68350001       5.32771001      10.74870004       1.11482610      -0.29461775      -1.49106929
O        9.56900992       2.31634003       9.12551992       1.39709971       0.13890137       0.89166023
O        6.63690008       9.10242002       0.59819307      -4.03460420      -0.24574591      -2.97607589
O        4.11337003      12.05869998      15.46120002       0.43144234      -1.80642339       0.75728139
O       12.87650008       3.34769000       7.38601008       5.35008385       0.72651694       3.36168079
O       14.99179997      13.24370005       6.47088998      -0.79002471      -0.73658953      -1.19003845
O        3.04472001       8.06575993       1.61547007      -1.11438638      -2.08863667       1.52710761
Al       3.93008007       3.77550998      11.21739998      -1.55787886       0.83976121       2.51839056
Al      16.58180008      14.06690006       5.92338997       0.32829030       0.87289893      -2.35423019
Al       3.21616997       9.24065994       3.07597006       0.82964572       2.20786557      -1.23333697
Al      15.81940001       1.57470994      10.18700005      -0.55087755      -2.43359224       1.01096067
Al      15.67090007      10.29339992      15.82940004       1.46994199       0.19047948      -3.78089047
Al       8.00807999       2.81476998       9.81878996      -0.69322889      -1.14828033       1.04434750
Al       5.95897996      14.15909995       3.54394993       2.58121611      -1.25861053      -1.27386423
Al      13.06570006       8.05814993       9.43799008       6.74340938      -1.21903585      -4.39660716
Al      10.62499999      13.33440003       5.18694008       0.68202353       0.35108070       0.23148882
Al       5.78439002      10.29460005      15.85979993       0.76211825      -0.84308457       0.46422040
Al       1.71102999       3.59568999       6.37831007      -4.48604320       0.76640473       1.27422656
Al      12.24040006       4.56880006      11.51759994      -1.15810298      -1.35703626      -2.56355492
Al       5.91215004      16.47739998       8.61415996       2.20762573      -1.29166667      -0.80957526
Al      14.60969992       5.50087003      12.24059997       0.28572282       1.91245669       2.40686467
Al       9.37016996       9.89908993       3.77393000       2.35275980       1.42759370       0.53747472
Al      10.44679992       2.26184001      15.49899993      -4.72588026      -0.76142470       1.12452347
Al       8.82859993       4.48956997       2.22264006      -0.00688325       5.89599157      -0.80914040
Al       2.02913002       5.80152000      15.01450006       0.00222239      -4.41464440       2.83772911
Al       0.92027607       2.02585006      12.73460001      -4.84975486      -2.59181048      -0.75500180
Al      15.77420008       3.33354994       6.36240994      -2.73080518       1.25821622       2.15318025
Al      12.07610002       5.07120001      14.49930001       0.98217813       4.06076140       0.65317831
Al       2.04060008      14.30010001      12.35950000      -2.32946528      -0.82411613       3.36011711
Al      16.28639997       6.72571007       2.40681996      -3.00877564      -0.84597613      -3.56145261
Al       8.08842998      12.03149999       6.08150992      -6.28790684       0.57278796       3.53720024
O        0.13320295       2.78151999      10.33529991       3.75130852      -0.34882480      -2.59627659
O        4.73560006      17.02109763       9.74462995       4.17972800      -3.26068065       2.75870930
O        2.42994992      14.98410000       3.29847005      -1.16811844       3.08020980      -2.47025798
O       10.71739996       8.92497007       7.45629006      -1.78857954      -0.04075552       0.86263174
O        1.31644993       0.44873507      12.67460004       1.65620982      -5.47093070      -1.05812509
O       12.40100001       3.35987997       9.95977994       0.42574002       2.46398375       1.21842260
O        8.96564996       7.18917006       9.02973995       0.93290427      -0.17839781       0.88588999
O        9.66973997      15.45300002       8.97944005       3.11434120      -3.00063756      -4.06699588
O        1.11060004      11.36610000      11.90099999       0.21754673       0.57590579       3.66228109
O       11.93239993      13.21659992       6.96194005      -3.75285542       2.17170258      -1.65146845
O       10.27759999       2.34409007       6.28628004      -0.51134809       1.03500167      -0.45510408
O        8.20736005       5.00726998       0.68118796      -4.08285356      -1.07633799      -0.79080204
O       14.73920004       1.46972992       2.77160993      -3.61729148      -2.56464491      -1.07471547
O        3.54288005       0.90096503       7.78854994      -0.16180816       1.50627393       1.38518223
O        1.18485001      15.64800007       0.51044203      -0.64444264      -0.74461075       1.19436061
O        5.70641998      10.48189996       7.15563002      -0.87015924      -0.96603862       0.91304305
O       14.48919994      10.56099997       4.49809005       1.82561390      -2.91540097       0.91039899
O        3.24352992      15.32539997       5.87399008      -3.60320796      -1.31250620       4.51121692
O        6.99833002      10.69520007      14.71519995       0.01231645       0.54375490       0.97239638
O       13.19249996      17.01453600       6.22694005       1.89434146      -0.63515614       1.86878990
O       13.86730007       8.99034999       7.96323002      -0.65730396       1.30838562      -0.05105939
O       10.40780005       4.51860993       7.56250999       0.17832364       1.04295670      -1.07984067
O       12.73529995       5.56858995       2.58264008      -0.95798047       0.31300418      -0.09675116
O        0.76276301       2.60416992       7.54522996       1.72102717      -0.75400982       3.30436758
O        9.10509991       6.51001994       6.28021997      -1.24497370       1.72172162       0.40715723
O        0.51575795       0.01432067       9.82941992      -1.55837763       3.11927141      -0.72946477
O        3.92389998      15.18460000       8.51173999       1.61508512      -0.96800994       2.67549112
O        8.38023993      13.36439993       7.13280002       3.36614287       0.89583505      -0.96557048
O       11.90250007       9.74544000       0.14791592       1.17585495      -1.31552160      -0.46176092
O       15.44130001      16.27790003      11.73679999      -2.01531151      -1.48127776       2.71639564
O       11.32829992       1.20109004      14.50529999      -2.37225969      -2.43031853       2.85571512
O        1.50801996      10.12650005       8.41707000       5.58637118       5.31816404      -2.65068275
O       11.13609996       2.51075999      17.01191926      -3.81947118      -0.78016245       3.11129101
O       12.84780001      10.45870001       2.86051996       0.53654388       3.43153395      -0.01913017
O       12.14769997      12.40989994      12.95959996       1.93360683       1.02084528       0.37975440
O       15.63299995       1.78735997       5.80611003      -1.89480642      -5.08348377       0.69312310
Al       4.33046003       2.02968007      13.74689997       0.31596606       4.36333588      -2.36646517
Al      10.14089993       0.52439600       2.18083993      -0.11445282       1.60188111       3.05281452
Al      14.85020002       8.52949000       4.19479007      -0.27821087       2.51282511      -3.65881425
Al       1.20674005       1.75970997       9.42300003       1.40903282       0.36296724      -3.01961126
Al       2.45102992      11.79710008      16.21480002       2.05745251       1.30886771      -1.07410888
Al       6.90690995       6.13206999       0.19896492       2.08431898       0.75125210       0.16769989
Al       9.29938995       5.64763994       9.72458006      -1.58139795      -2.15009920      -1.06597872
Al      15.12089993      13.45920000      15.89319998      -5.78716882      -1.53320338      -4.47332226
Al       3.26470006       8.37659993      14.94129999       2.22490856      -0.07374724      -1.93445046
Al       1.50101992       1.86319999       2.14401993      -0.61556772       3.17905434       1.85135132
Al      11.75189998       7.09664000       3.53135007       0.48410323      -0.01049350      -2.91808883
Al      16.51699992       4.26155005       3.57587005       0.05778251      -2.82226294       1.29679259
Al       6.90638005       9.13528999       4.57220004      -2.00446563       1.21926836       1.49005984
Al       9.57252000      16.42010004       5.03051005      -0.12675600       1.16858416       3.12844996
Al       5.84574002      11.89049993      11.02610003      -1.36880525      -1.63925417       2.30357442
Al       8.52983006       6.67655994      14.45249995       2.58215466       1.17189003       1.18887758
Al       2.21978996       6.03880005      10.18530006      -5.01946570       3.06213612      -2.74334445
Al       0.07674498      10.98340006       7.95534995       0.45154122       1.66671521       0.87096596
Al      13.40949999       4.39037004       3.63266005      -1.54646774       1.44637148      -1.59805561
Al      15.80979998       8.48837001      13.42839995      -1.06862438       0.11644881      -1.69339064
Al       5.85565008       3.96959004       8.36060999       1.58048856      -1.14802508      -4.05622159
Al      15.35509993       1.22460001      16.04649994       0.45852989      -2.21624029      -1.64029724
Al       3.16178006       1.15838000       6.19071995      -0.10451059       1.50052396      -0.75240332
Al       7.12274997       0.62142204       2.69153992      -7.34847723      -1.10981956       5.57052810
O        7.34623994      11.24690003      11.66879992      -0.70287280       1.85791030      -1.02966533
O        3.43157996      12.95219994       0.73848004      -0.80183349       1.37367840       0.19201449
O       12.15220004       7.19664008      14.90659994       1.06032983       1.94811519      -0.75225311
O       14.05770001      13.50449997      11.41469991       2.83718360      -0.56446139       1.76229905
O       10.71810007      15.43329992       6.05596997      -0.95367709      -1.49706477       0.01200440
O       13.73850006       7.53846995       0.79644508       0.91384117      -5.80364966       2.49647937
O        2.24374003       2.76302992      12.65130005       8.98087304       5.72052841       0.39895288
O       15.48519994       0.24617794      14.31520000      -1.91101906       2.29529303       0.72729322
O        0.35661097      16.50489992      15.06789999       5.38414523      -0.91122348       1.65149819
O       16.56499993      10.68960007       9.54480991      -2.24524713       1.04738944       0.53557405
O        9.46935008      12.70780001       9.86559001       0.57115345       0.82417726       1.26160415
O        2.60059000       7.98226006      10.38310002      -1.25595194      -0.81807735      -0.03104593
O        6.03958995       7.74763003       5.08042993      -1.26350159       0.17158390       1.36689959
O       16.72636741       8.71168004      14.92229999       1.36169298      -1.00411538       2.41964462
O       10.84919996       9.33823994       4.65699001       0.60228078       0.01595545      -0.94269673
O        5.18623008      15.02090003       4.73383998       0.33046929       2.40144922       0.77682562
O       14.63560008       9.58110992      14.50339992      -2.78691963      -0.81570628      -0.77371473
O       11.39170005       1.90665008       2.22528001       2.58749838      -1.08415384      -0.03649704
O        0.00800811       6.70127004       0.72383893       2.08517148       1.78083350       3.33663659
O        6.68683004       1.50843992       4.46800992       0.05213633      -0.44646864       0.61016407
O        0.63866707       3.50202996       2.61641007       1.82458817      -3.48845968      -1.83098214
O        5.40778003      10.57410002       9.69019993      -0.42728770      -0.05363155       0.71212069
O        8.86529002      10.12010008       9.48979996      -0.14036508      -0.07984489       0.67096779
O        7.53458002      15.46789994      16.21719995       2.55705805       1.99811317       0.96597044
O        8.52637000       9.19379996       5.11727008       0.24120720      -1.33301397       3.16322273
O       17.02209512       9.93458996       3.30395003       2.34524665       3.13888158       1.27135490
O       15.26219993       8.03791993       5.61499002       2.06417265      -1.88854150       5.89850669
O        4.21192004       0.50462693       4.99919000      -0.33525610       0.37425839      -1.64879194
O       11.67290001       8.21918008       9.91052004     -11.10339415       2.06393169       2.30969213
O        8.78210000       1.74082999      15.96439994      -1.08863523      -1.13692478      -1.49101798
O        9.64250993      10.69449996      12.61200006      -0.27527678       2.14586325      -1.84664581
O        8.58333993      12.77060007      16.95325036      -2.37932389       2.95331146       0.06408758
O        9.53412003       5.22893005      13.69279993      -0.52887114       2.56694438       3.75025264
O        9.03365993      11.91049998       4.83731993       7.02532782      -0.90143937      -4.46316283
O        2.95530995       1.04490003      10.44230002      -4.53290097       2.05462394      -0.28928962
O        4.90771992      12.64679998       3.88416006      -1.77610782       0.34213373      -3.30734410
Al       3.80527993       8.01978000      12.10550003       1.52222938      -0.56116641      -0.49063733
Al       9.77541993       5.27015008       5.12665006      -0.36049532       4.31064382      -0.04287579
Al       6.88554998       1.73143003      14.87840006       2.39520166       2.38649041      -1.17682059
Al      12.15799995      16.97209995      15.87770000      -0.82247055      -4.09842189      -1.86935343
Al      12.29830006      13.34419997      15.70850007      -0.56160264       1.20491563      -1.17497683
Al       4.51889998      12.16690005       1.92023992       1.83250016      -3.26489246       1.31546619
Al       4.55391005      11.30310004       5.42492007       3.37772047      -0.67527110      -3.56015609
Al      14.32000002      11.59889996      11.82860006      -2.03515642       4.62515728       2.64575775
Al       1.40726993       8.75543008       9.08489996      -0.62698517      -6.18338790       4.42714587
Al      15.69999996       4.39599001      15.17690003       0.97005518       2.82712979       0.02495749
Al       6.07978006      15.16079999      12.80940003      -1.13120559      -0.86284958       2.77791551
Al       1.00714997      11.46489994       2.90766008      -4.86457980       3.33507463       1.58342602
Al       7.76964999      11.95759998       3.01608993      -2.57971626     -11.54130673      -3.20342053
Al       5.05547007       7.59579993       6.59800007       2.49960235      -0.69786983      -2.36557255
Al       4.99794002       6.51918994       9.70196003      -0.09914611      -0.59633744      -2.72183321
Al      13.74580004       5.78787007       0.46843397       2.37799064      -1.67505564       1.65597543
Al       4.25351002      15.03090005      10.46360007       2.89311664      -1.54733688      -2.20756942
Al      12.79749994       9.68627005       4.58640001      -4.56121969       2.74345349       0.00808355
Al       0.12551203       7.39848003      16.22069996       0.12831765      -0.37964403      -3.10885658
Al      10.84280000      15.71530003      13.84640001       0.17476026       2.39199502      -3.86024838
Al       3.30977998       3.84739998       3.50261006      -0.70195214      -0.61488713       1.21291812
Al       9.90055006      14.92299993      16.30539997       3.29245327      -1.97957052      -1.58508175
Al      12.96089996      12.37420000       3.03227004       0.73319128      -0.07819879       0.14778920
Al       1.80113998      16.63429999      10.74170000       2.61009420       1.82750765       4.51180398
O        5.57274006      16.66151040       3.08433992       0.84368182       2.18517503       0.57965389
O        7.60031007       9.81063998       3.10650004       1.95056425       0.92392021      -2.64063178
O        4.47687007      15.41479996      12.25510007       0.17279197      -2.33832839      -1.46867503
O       12.13469996       9.63570998      12.88710000       3.82604429      -6.74922168       0.10335000
O       15.37599999      13.66590006       0.42995205       2.53554597      -1.14300303       0.90497864
O        4.92204008       3.83004995       0.64422200      -0.37657197       0.49731389      -1.21899071
O       11.11659993       6.65138993       4.97696006      -0.85770379      -2.06910611       2.47559726
O        4.78865993       8.66607005      16.00289996      -2.48104285       3.99315210      -2.38972023
O       11.32210003       3.73301999       3.86412006       0.26043615       0.53355973       1.48004163
O        2.39946006      10.76839997       2.94594994       3.86229882      -1.22718694      -3.38100592
O        5.25790992       3.60678003       6.58393001       2.69927070      -0.45310882       1.55141505
O       13.59559994      11.75690007       7.90725006       1.34800215       3.16106415      -4.20888890
O       15.10499996       3.11246007      10.06609991      -2.06019687       1.81610884      -0.84063370
O       13.46349999      11.47510005      10.49519992      -2.63788329      -4.32563585      -5.37065615
O        6.91706994       8.15539004       7.84150004      -0.57780882       0.43257250      -1.02815023
O        1.82110998       7.38849998      15.33829995       1.37035085       4.88978959       0.45294176
O       15.23979996       9.63123995       0.15359701      -4.51123835      -2.96096059       4.25837200