360
Lattice="17.17824298 0.0 0.0 0.0 17.17824298 0.0 0.0 0.0 17.17824298" Properties=species:S:1:pos:R:3:forces:R:3 step=0 confid=0 wdir=cand0 selection=->scf energy=-2379.10652477 free_energy=-2379.22773026 stress="0.030995483147921367 -0.0014098615412775845 -0.0024208994000070234 -0.0014098615412775845 0.04678133014609522 -0.008155831691936271 -0.0024208994000070234 -0.008155831691936271 0.058888461350090876" pbc="T T T"
Al       1.31673002      17.13434192       3.40832007      -9.20627758      -1.35737528      -2.75606537
Al       3.13348004       2.56793002       1.68996995      -0.41818854      -1.52148387       1.01031531
Al       8.83113991      15.43319993       6.27142006       0.68235928       1.24911862       0.23247249
Al       1.88013997       1.72204997       5.43450998       0.84888503      -0.69352169       4.71966030
Al       2.06183991      16.73940003      12.86599998      -2.11364612      -0.14756669       1.22470500
Al       8.41141995       0.23481593      13.08280006       0.41362283       1.10472940       0.91671279
Al      16.75259996      15.92569998       5.65126007      -0.22198554      -0.50737957       1.00627068
Al       4.54095000       2.18947993       5.17662006       1.39953699       1.05908140       1.32862453
Al       6.72182999      16.93729991       9.78185998      -0.23002880      -3.03836178       2.39497717
Al       1.68156000       1.51766994      10.87510003      -0.92934930       4.67565523      -1.13387108
Al       2.06119006       0.48002401      16.26110002       1.39044302       4.00250720       1.30201450
Al       6.36252007       0.89492307      15.66609997      -0.23215370       2.02762789      -1.37569126
Al       0.18489493       2.02339999      14.38989995      -1.22752390      -3.82787920       0.90061260
Al       7.71679004       3.38502002      11.95100001       2.00511250      -0.03309218       1.09714555
Al       5.59812003      14.94189995       0.52708896       3.24439149       5.34226505       1.78567255
Al      16.41660006       4.69721996       2.09703006      -4.38432876      -1.56703771       0.37640971
Al       4.76363002      15.69209993       8.40252008       1.48531001      -2.99269213      -0.52700046
Al       6.80388994       0.33826400       5.90889008      -2.51683745      -0.30428816       1.59083244
Al      15.74589995       1.24998000      10.18909995      -2.13736759      -1.63697671       2.52059927
Al       5.51681008       4.01333006      10.69079998       0.80134678      -1.98355039      -5.58238992
Al       5.26548002      16.15659996      12.83300006       5.47811563       1.39910234       2.20625340
Al       4.10811995       1.69629996      14.02639992       0.03383089      -0.65937354       1.56284470
Al       3.44067993      16.92840004       3.04576003       4.11798148      -1.16791069       0.79632451
Al       6.99648003       2.17774994       2.02483008       3.87741101       1.02857867       1.38058093
O        8.69002992      12.75640004      11.32329997      -1.01776455      -3.30806304       2.16938075
O        6.07000997       2.80146995      11.60690005       2.21451592      -1.79539287       3.73935998
O        3.30237996       1.30522008       0.66747798      -1.18099136      -1.96808526      -2.27396403
O       16.73509997       3.26427003       1.08462000      -1.57187402      -0.78652656      -1.67356434
O        2.55207004       2.19732008       9.37073996      -0.90680338       0.83921743       1.00742307
O        4.54056006       3.86449003       4.35682002       4.37386195      -1.55759889       2.13572545
O        7.52263999       4.26746001      13.51599996      -0.41882187       0.50808298      -0.16957185
O       14.69809997       2.78810992      11.00819997       1.72387749      -2.40669521      -4.89715561
O        0.36552793       1.06141993      16.04140009       1.46272940      -1.55005974      -3.17519008
O        6.03440996       1.76605995       0.68531501      -0.19909992       1.58937532      -0.83456744
O        8.99920995      16.64409994       4.88621001      -1.20242488      -0.51910594       3.32910384
O        2.70025008       4.98353008       4.41261994      -2.13040192       2.72771603       3.41824254
O        2.19241999       0.07820945      11.30909992       1.02539430      -4.10475543      -0.19168773
O        8.07267995       4.67425008      10.75699995       0.00191522       1.22671114       1.38751255
O        8.05647004       0.85492096      14.90979999      -4.10336338      -0.88821293       1.27357002
O        5.39895995       2.46562001      14.86899995       1.42350314       3.42977831       0.64533671
O        4.72834007      16.23789995       4.29962008      -2.23528370       3.36898728      -1.18196832
O        5.50064003       1.54484008       7.01140002       4.24728048      -1.58788063      -6.39181463
O        4.31963995       1.42870004       3.05739004       0.60762691       0.81195966       0.40330397
O        3.36551997       4.81346994       8.09274997      -3.29788385      -1.06770816      -1.10088443
O        5.32740003       0.01241678       8.86531002      -2.79486778       4.40159854       1.21364127
O        9.51370005       6.49903007       9.49377999      -0.10031197      -1.34076653      -0.04367118
O        9.75684004      16.91069992      14.06600006       1.98915280      -1.68454827      -2.79390438
O        4.33018000       4.68529998      13.47080005      -2.94804680      -0.56473488      -2.39856073
O        0.91914903       1.21969992       1.93370998      -0.43548645      -1.48497531       0.99148173
O        3.18939007       7.11456997       6.46358001       0.21591405      -2.20211068      -0.98797133
O        8.07488993       0.11773504       8.89692005       0.86931180       0.85252290       0.30189776
O        1.68818994       4.74143006      10.88860006      -0.10355744      -1.14820850       1.57464862
O        2.84034998       2.41591992      12.08939996       0.34862697      -1.33933085       1.28523933
O        7.69142997       3.40558993      16.31849992       1.12605273      -1.65117388       1.97135020
O        3.37935996       1.85514992       6.45113008      -3.54990460       0.91618236      -2.06356855
O        6.66191004       4.52340999       1.68320000       0.25407841      -3.25320249      -1.39248254
O       16.99160790       1.93637999      11.31330000       2.48279196      -0.30354778      -2.54134929
O        5.35757000       2.94795003       9.18923001       0.30517480       2.26916085       3.03411516
O        6.99480996      16.81399998      12.12589995      -1.58368609       0.36105853      -1.91124245
O        1.49174007       8.73932994       0.96133794      -0.10006348      -2.35393195      -0.40142568
Al      14.74759993       6.44514999       4.96535997       0.45227755      -1.12712551      -0.07940300
Al       3.90485993       8.39681003       2.09357998      -0.27004486      -1.27452410      -1.34616886
Al       4.59091996       1.71837005       8.46113001      -1.19523373      -0.64057954      -0.67567650
Al       2.44185993      10.27189994       9.47322004       0.04808911       2.56761791      -1.03012397
Al       2.98797998       4.00149992      12.55310000      -1.80368895       5.09357127       1.03815441
Al       5.11580994       8.25547999      13.70749992      -3.02640865       0.38025304      -0.78689067
Al       3.10512992       8.77350004       6.99459008      -0.18290055      -1.87682087       1.43391479
Al       5.86531008       6.65932008       7.17976003      -2.21978296      -1.78248940       0.25999586
Al       5.81256995       4.32536992      14.06889992       2.38373110      -2.15521479       4.09618255
Al      16.91129996       7.83986992      13.01949995       1.03308503      -0.38008653      -0.30930143
Al       1.40042001       6.78925992       0.51537392      -0.35280981       0.45067870       0.88680044
Al       4.37551991       6.66830997      16.48140000       2.72967771      -1.10436108      -1.51370058
Al      17.03523600       4.89511006      14.41709998       0.54773351       0.18581840       1.00219995
Al       2.58172003       6.30471992      14.86129997      -5.37449610      -0.27008457      -4.16025091
Al       4.28583007       5.22454994       2.96114000      -3.32179534      -2.70238193       1.23918825
Al       1.77243994       6.17809995       3.48734995      -1.02606891       0.62625120      -0.14990392
Al       2.45736003       4.06537000       9.63658994       4.83267357      -1.08968533      -6.66156484
Al       7.36004998       8.83458999       8.26330004      -1.32523387      -0.46820125      -0.52574893
Al       0.02792495       4.99260002      11.30630004       0.24805602       3.77976002      -1.96496097
Al       5.25287995       7.11217000      10.48989992       0.03230653      -0.51202356      -2.74821006
Al       6.31506998       3.75417995       0.12724096      -0.23463539       0.85616040      -2.38249161
Al      16.07660002       7.69253007      16.27910007       0.51970153       0.91987792      -0.39692132
Al       3.07091997       5.24603992       6.24161993       1.08059909       2.52915174       2.34865824
Al       6.04792992       7.52367996       3.83696997       3.17296072       3.44663966       3.85181773
O        8.11830003       6.41302994      14.78980000      -1.06558701       3.75453094       2.44427034
O        1.01045002      10.50000004      10.45760001      -0.42860507      -0.33289456       1.18402584
O        3.13119997       4.06902003       2.34975998       0.80236166       0.15104240      -2.61190786
O       15.28269997       7.88113996       0.68150900      -2.11017285       0.05607721      -1.91595920
O       16.44690007       8.58286002       9.03570994      -0.88279903       0.07480210      -1.61565534
O        5.73942998       9.67278999       7.45662005       2.62393430      -1.30787245       0.71784251
O        4.60381997       5.32547005      10.45269992      -1.58759931       2.88081955       2.21982043
O       15.57519992       7.83697006      14.30220004      -3.27069879      -0.75076995      -0.30957638
O        0.72002004       5.21192994       2.41660997       3.52679596       4.05435832       0.35438658
O        4.55689004       8.11812001       0.21534800      -0.00572958       1.09837899       1.82061072
O        7.45105001       7.17404002       7.49286993       1.91148079      -0.54456691       1.84112283
O        3.23808008       8.89506995       8.79529992      -1.01867450       0.81926874      -1.30980660
O        1.57765997       5.13708004      13.39529996       1.82806818      -1.92106115       3.27381443
O        4.90751996       8.22501008      11.79399997      -3.13294882       0.93201968      -1.52093745
O        5.64572008       6.12704002       2.94407995       1.23481319       0.84356556      -0.55014072
O        2.71538995       6.18548006      16.68850003      -0.03709587      -0.01109560      -0.98705602
O        5.99889995       4.26886003       6.98258008      -0.14689891       2.05027326      -0.59044635
O        9.15878999       9.29538004       8.90575001      -3.73916264      -0.94099751       1.50120645
O        6.06459007       6.73868992       5.44191999      -1.19533894      -2.82974000      -0.03477887
O        1.33947006       8.17286002       3.37798003      -1.64200531      -0.18479375       1.22465193
O        5.16739002       6.95787004       8.73176996       0.26758125       0.69778778      -0.20028663
O        7.59005000      12.52309992       8.70111006       2.00038893       1.58121821       1.25548234
O        6.98363998       8.85380008      16.30399994       2.65286116      -2.80050716      -6.29832777
O        3.97709994       7.15955996      14.45330004       1.13134206       0.69423825       2.30940204
O       16.10029999      10.26209992       1.87406007       1.53122924       0.57875457       0.91598781
O        5.66159003       8.68020998       2.57876004      -3.41185534       1.20042425      -4.99147706
O        6.63211009       8.08491996      13.10940005       4.24373937      -1.21504795       2.06006410
O        2.01780005      11.60980008       8.01981992       3.70622699      -1.43974612      -0.82139577
O        0.87042707       7.33823997      14.23969993       1.65353364      -0.81050222       1.58490504
O        4.54906999      10.05810004      13.74539993       2.63828836      -1.13465235      -0.84686118
O        3.09436999       6.70977996       2.45380001       1.86356080       1.26433497      -1.54026446
O        5.52659996       9.09179003       4.73633001       0.89222930       0.51668492       1.05557575
O        0.37412203       6.75123003      11.51590002      -2.46061028       2.68473757       1.55865479
O        5.85257997      14.90740002       9.53833004       1.48338802       0.26092188       1.10756051
O        5.20365999       5.12973995      15.88179995       1.13103099       0.10019627       1.97939759
O       16.58220004       9.55831006      16.07950006       3.22273922       0.78971107      -0.02802373
Al      14.61670000      11.07770005       1.43588999      -1.28795003      -0.99537640      -1.18662086
Al       2.06706004      12.13119995       2.22900002      -5.31347355      -2.93988014       0.81250701
Al       5.76282004      10.72400003       5.95911995       5.09633573      -2.82433952       2.96563807
Al       1.90937992      15.08139999       6.73344007       1.04190388      -1.13897885      -0.98742303
Al       1.77036000      11.27370003      12.07860000       0.59443509       0.38827785      -1.65247962
Al       4.99301007      10.05229998      11.94100004      -6.96393276       1.64258411      -2.98494194
Al       0.18987095       9.29370001       2.47266996       1.27093662       1.00772775      -0.38839009
Al       4.67378008      14.94099998       5.47944998      -0.48565600      -0.54177986       1.32355185
Al       6.80954003      12.75009992      10.21540001      -4.60770442      -0.92392885      -0.27009192
Al       0.78324697      14.04139996      14.01559995      -1.25898108      -0.59857156      -0.35461275
Al       1.11660005      10.05409992      17.06247794      -2.98039749      -1.42075294      -5.50201566
Al       8.11591003      16.30600000      16.34579993      -1.45118232       6.73526404      -1.95905535
Al      17.12878716      11.16759998      14.63659997      -2.62722805      -0.06419734       2.41472260
Al       5.87172993      13.63219995      15.08430002      -0.61548468      -1.35011290      -2.15222765
Al       5.12131007      10.26310004       3.43201007       0.76828275      -0.38425232       1.49671948
Al       2.79450005      15.41670005       1.06262000      -0.88510944      -0.09202225      -5.93899036
Al       3.38377992      11.68230000       6.68187992      -0.84751601       2.52810275       0.49214682
Al       8.84466005      13.70030000       9.27058995       4.86111460       0.03100433      -0.75172432
Al      16.47070001      10.22709994      10.78450008       3.46596859       1.55212555      -2.30374788
Al       3.04329993      14.10260002      13.26759999       7.26597661      -0.05535073       0.88565594
Al       4.44389997      12.67880008       1.18190005       4.53327370      -3.81205589      -2.84201117
Al       0.96866600      12.97740003      16.82639993       1.92901670      -1.31928532      -0.09010871
Al       2.15820007       9.77182995       4.13455005      -1.95868999      -0.94697703       4.20846961
Al       5.66358992       0.34238008       3.05211993       4.02643905      -4.98752355       1.62100563
O        3.24156005      11.06459992      11.02789998      -0.31066002      -1.87714374       2.06201439
O        1.98127000      15.25810004      13.79079997      -1.31262099       3.09861463      -0.04955464
O        1.46017006      11.50730008      15.71270008      -1.73695207      -1.10828664       0.28412455
O        1.82718993      14.00630000       0.78126598      -0.72306806      -3.25748002       0.29512706
O        1.01440995      10.94100006       3.49984008       0.75146453       0.44815105      -1.34544778
O        6.03754997      14.24119993       4.55025992       0.20004806      -2.76679390       0.62297140
O        2.04494992      12.76809997      13.29000008      -1.41219279      -0.22654279      -1.69175096
O       16.52750004      14.67919995      13.20539998      -1.02506408       0.91022943       0.86222067
O        1.16493997      11.31250001       0.88596994       1.18420721       5.49654028       3.46115823
O        6.43965003      16.45170002      16.74639999      -1.16765206      -1.20377886       0.20367920
O        7.93831998      11.30870001       5.42388008      -3.31540959       1.27911493      -0.37227883
O        3.11997004      13.92490003       5.73572996       0.36973472      -0.31571733      -1.41223721
O        0.40402403      10.95799999      13.02799992      -0.64453206      -1.14648594       0.30331653
O        3.94147003      13.84079999      15.35590007       1.53368738       0.68395681      -5.08238834
O        6.22654001      11.57810004       3.17575003       0.48018923       1.91803274      -0.48495355
O        2.01569005      16.10630000      16.61180004       2.04748718      -3.39585143       2.77517922
O        4.29584001      10.88159993       5.23814995      -5.73640931       2.45135720      -0.61137350
O        6.97073002      16.12050006       2.75712999       1.91080460       2.26732697       0.71623863
O        3.31343004      10.00299997       2.92342998       3.29473494      -0.95506254      -2.83867438
O        2.44150004       0.77687092       4.21193992       2.29299871       0.15251232      -1.27874686
O        5.66018004      12.29410003       6.89594007       0.06290548       0.99095719      -2.72149980
O        9.63188997      15.41549998       8.24130003      -0.50123943      -2.10147361      -6.31667576
O        9.02583005      15.10439994      16.60328702       5.62721073      -6.26454879      -0.03292274
O        5.40040997       0.33864295      14.24970007      -3.13650142      -3.46536115      -2.93124670
O       13.95259995       9.54458000       2.25898997      -2.70953010       1.32237528      -0.61415982
O        2.10755002      15.82119992       2.48317996      -0.37365241       3.11609010       4.53983333
O        5.17277007      11.84780000      10.51399996       3.49291973       0.81052424       0.39687975
O        3.37739992      15.22119997       7.58263999       0.98015402       2.19153781       1.80726980
O        0.27473198      13.89770000      15.60740002      -1.20834893       0.30584078       0.11816047
O        7.05465999      14.91389992      13.95220004      -2.57303128      -1.30018250      -0.48640750
O        3.41124003      13.04519998       2.39544002       1.74739186       0.65906931       1.83683673
O        4.69246004      16.03460008       1.89520993      -1.91275057      -1.29781862      -3.19022700
O        1.92221997       9.51158008       5.90345007       1.29324705       0.52595878      -0.77481117
O        4.01347006      15.26800003      12.15409992      -1.24155887      -0.94444012       1.24513323
O        5.33753004      13.45280000      16.99619999       0.77216465      -0.77788472       1.72214276
O        2.79559997       1.69690000      15.27560003       0.07368858      -0.28225680      -3.46226009
Al       9.13362009       2.16170992       0.00139625      -4.84435194      -5.59819427      -2.07540922
Al      14.14730005       0.29253397       0.18094908      -0.09252313       2.64989929       6.06398084
Al      14.07910002      15.73209998       9.90047008      -0.26868323       1.50782279       3.24735233
Al      13.05289995       0.75882999       8.69719995      -2.54822638      -0.21963073      -0.01175944
Al      10.54330003       1.97240002      11.18129997       0.46433747      -3.49228384       1.65931857
Al      15.20839994       3.09910002      12.61769999      -1.74982307       2.42502992      -2.77344371
Al       8.79441008      17.00229998       3.17367008      -1.03322795       0.68277748      -0.82061797
Al      13.58080007       1.32597002       5.21556005       1.35792630       1.58642078      -0.27197977
Al      15.96490005      16.53399995      12.86529997      -2.14008940      -0.55591800       0.28091883
Al       8.98891005       6.45893003      11.22600000      -2.35826577      -1.85231863      -1.08221900
Al      10.75689997      16.89500004      16.07420005       1.04544528       3.29081368      -2.41623621
Al      16.97100105       1.48682005       0.30966205      -0.87853094      -0.34064730       6.90477467
Al       8.25163000      13.82550002      12.66070005      -1.49714160       3.12581962       2.32203360
Al       9.07804005       5.29683993      14.11659995       0.65207798      -4.29149999      -0.05225970
Al      16.09649999      16.16400000       2.38831998      -1.11636765      -0.73456050      -1.85394597
Al      11.26189995       3.10556007      15.43420005      -0.01729173      -2.57201581       0.95481056
Al      11.46389994      15.91550006       7.34902001       0.07609789      -0.98248263       5.89924730
Al      15.13239996       5.76235005       8.08740995      -0.58170754      -2.09427688       1.12150027
Al       9.52347000      16.49620008       9.53336003       1.37952486       1.83480425       3.69334157
Al      13.15340006       3.68137993      10.82439999       1.61246728      -4.65900953       2.96481587
Al      14.22700005       1.31323991      14.91110004      -0.73582858      -1.49831890      -0.40502853
Al      10.15770001       5.01310002       0.44628800      -1.17817149       1.15930604       1.23222794
Al      12.10539995       0.49823106       2.81787998      -0.01307929      -0.84692795       0.81691729
Al      16.19379996       3.41265002       5.59146999      -3.04417914       1.66396831      -0.14335433
O        0.18373007       0.32883005      13.32890003       3.12884020       0.93000025       1.23638918
O        9.94739005       6.14914997      12.83250000      -0.11606967      -0.37018155      -4.21933649
O       15.26749997       5.11110001      15.74509996      -1.01733186      -0.60299175      -3.44434241
O        8.60210000       1.19720999       1.97490993      -3.17560815       3.21193788      -0.11229648
O       11.11979998       0.16111405       8.89940007       0.29400531       1.45970837      -2.17604275
O       13.39009993       5.07039994       8.10026992      -1.15737541       2.40829930       2.84236568
O       13.59440009       3.98687007      12.56050005       1.25915725       0.89965085       2.82144318
O        9.32597003       2.36522005      12.45420005      -1.80644614       0.38987753      -2.08015562
O       11.27389998       1.46688006      15.72520000      -0.22025361      -1.61331575      -0.05688363
O       14.57219994       2.11736000      16.82159998       1.50771495      -1.94306722      -0.93398852
O        1.19621004      16.56760007       5.85446992       0.65877351       0.69460706       0.55981347
O       12.77770003       2.45042998       8.02111000       1.31152560      -0.68822584      -0.80756204
O        8.96611006      14.81579996      10.72219992      -1.26512635       2.65986059      -2.11049803
O       16.43219996       4.43785993      12.67810007      -1.33513694      -1.25076886       3.16977822
O       15.99019999      16.93619690       0.69747308      -1.46585998       2.85962981       1.09529391
O       10.18069996       3.26338002       0.30131806       5.13672432       6.30932882       1.97894726
O       12.23909993       1.49246001       4.18223994       0.43523787       0.43953865       0.63557106
O        0.40336902       2.40561005       5.58890992      -1.88565377       1.14854769      -0.26785682
O       14.56550008      17.08496100       5.16489007      -1.37381684       0.53961547      -0.38844289
O        7.74859006       4.76809997       4.20737000      -1.95560188      -1.60695698       1.96984060
O       12.31799995       1.97188003      11.23630007      -1.74616130       1.46945515      -1.75753971
O       15.93639997       5.72399996      10.10089998      -1.01229382      -0.67680513      -3.35189057
O       17.13848514       3.27768005      15.55009993       0.36330626       4.21381968      -1.04443726
O       12.73699997       6.10024007      13.49549996       1.86761054       1.80356093       0.02501514
O        7.00516999       1.09052004       4.23543993      -2.33828632       0.56162587      -0.15366369
O       14.27219996       3.07339999       5.59161996       0.30194960      -5.78985662      -2.27863723
O       14.84309997       0.09580031       8.79516008      -0.67042861       2.68364528       1.98596603
O        9.45966005       8.75670006      11.58669998      -0.95614399      -0.48988647      -1.07504672
O       12.82499998       3.57623001      15.46690003       4.17434699       3.01417402      -1.74809426
O       10.25410002       6.63641993      16.86813996      -1.86690240      -1.62442793      -0.19421060
O       12.30729996       0.35448095       1.17001992       4.05889326       2.53331063      -2.23061514
O       15.68470006       4.62333995       4.14275008       1.26334083       1.36624930      -0.64230137
O        6.09663007      15.78369999       6.60037998       0.11786660       1.28019599      -0.35421896
O       11.77000008       4.61920995      10.74009999      -2.20599378       3.15209490      -0.32961426
O       15.48880006       2.25129000      13.98500001       0.97888844      -0.83470265       2.53896957
O       10.11790008       4.13014005      14.97280000      -2.61580019       3.61179662      -1.46618011
Al       7.61298999       5.69432008       2.79384006       1.03372123       1.05149486      -0.15143034
Al      14.05470004       6.11929006       2.38404999      -2.15049675       4.01068024      -0.80105235
Al      11.24340001       5.63104007       9.43400005      -0.74623808       3.26069766      -2.81456404
Al      11.46519999       5.77099002       6.03511993       0.42488050       0.95032267      -2.27848480
Al      10.66770006       8.15521007      16.22210009       3.36936406       1.07048011       1.49330677
Al      13.65939998       8.12334992      13.60619999      -0.97927277      -0.51547980       0.27609999
Al       9.01627997       6.45678000       7.68662006      -2.16351413       3.02748506       0.72389231
Al      13.62449998       9.44068994      11.08269995       0.03285543      -0.67577475      -2.36132265
Al      11.73900005       6.34743001      11.99500002      -0.08303172       2.15620151       2.71541903
Al       7.70845000       9.22445005      11.44239999      -0.90434020      -3.18950451       1.22699337
Al       9.05215004       7.63748995       0.58357206      -1.94496864       0.75233362       5.52132101
Al      15.55490005       3.64927997      16.92659993      -1.03904196       2.31722699      -1.63765716
Al       8.09039003       8.16949996      14.81899992      -1.81441478       0.72915024      -0.00791904
Al      13.38249993       8.52727999       0.49695403       0.81819938      -0.89108917       0.69409689
Al      13.56169993       3.85723996       6.92188007       1.50589815      -1.71163505       1.06753268
Al       9.50991001       7.85010008       4.52733006      -4.64528880       3.34951922      -0.58673521
Al      10.62579992       8.94934993      10.17410008       2.07450144       1.32969154      -1.37761428
Al      16.14209998       7.56842001      10.42180004      -0.53775413      -1.40946880       1.22770281
Al      10.14339998       9.34451995      13.22950002      -1.13059492      -4.44992727       1.76477401
Al      10.34270007      12.60639997      12.84269993       0.80132579       0.87205937       0.15226029
Al      13.63509998       5.04073999      14.48080000      -0.13348682      -3.93411955       1.05961873
Al       6.11192008       9.28150998       0.40773195      -0.40696289       1.44270834       4.36049308
Al       6.13824007       4.58926999       5.33391007       2.38358580       2.07289838      -2.23127904
Al      15.80340000       8.38515992       6.78059006       3.05381893       4.65726580       2.88630173
O       13.84370003       9.98560992      12.84050008       3.06505728      -3.27150288       1.40723251
O        9.10292995      13.43869993      14.28080007       2.73409961      -0.87897293      -2.33901039
O       12.58790003       6.79923000       1.79436007       0.22377709       0.64253192      -0.30199418
O        8.94459001      11.54669993       2.71717992       0.20916722      -0.16492855      -0.72907075
O       10.39230001       5.57445992       7.38946996       3.62097421      -2.27302541       1.50258526
O       15.44529994       9.91681002       6.04273007       1.42861203      -0.95222404       0.27467761
O       11.49670007       8.01192995      13.17499998       2.16794656       1.66067066      -1.18052759
O        8.33691001       9.53774993      13.71199993      -1.52059960       2.60811191      -1.49436202
O        9.25925007       6.06746004       1.89622001      -0.88843857      -0.94308387      -2.87657801
O       14.80800001       7.59700993       3.50334994       0.04959885      -2.02419234       2.93883069
O       15.55379995       4.14937006       7.16094006       1.36770339       2.32861973       0.98132002
O       11.41790004      10.03620002       8.88651999      -2.63945146      -0.59193758      -1.87129076
O       10.08269997       8.99548004      15.02330008      -3.28412098       0.20427033      -2.05604512
O       12.26159999       8.00704995      16.14829995       7.07245249       0.35787875       1.04919419
O       14.73510001       5.26256006       1.15700002       4.23990721      -4.08116294       0.26025610
O       10.11360003       9.32100998       3.92207992       0.08686066       2.77145919      -0.78886287
O       11.64250007       7.39218996      10.02429996       0.21674373      -2.41438361       1.91146746