180
Lattice="12.74330416 0.0 0.0 0.0 12.74330416 0.0 0.0 0.0 32.74330416" Properties=species:S:1:pos:R:3:forces:R:3 step=0 confid=0 wdir=cand0 selection=->scf energy=-1299.29731707 free_energy=-1299.29731707 stress="0.015284102215754913 -0.002497091374359418 0.0007314404821453753 -0.002497091374359418 0.014183070090395869 0.0010789649452860124 0.0007314404821453753 0.0010789649452860124 0.012657284282349704" pbc="T T T"
Al       0.68768005       6.23602000      13.15370007       0.06212610      -0.43534752      -1.12174300
Al       5.83606999      11.02380005       8.91509015       1.51474118      -1.16528155      -1.41769709
Al       4.82291003      11.56049998       2.14123986       1.08082760      -0.02246860      -0.72888020
Al       4.74726004       1.20626996       9.19375007      -0.71042067      -0.94745349      -0.40784638
Al       8.36436002       6.28917996       7.23759992      -1.00401823       0.46910566      -0.75028347
Al      11.69970006       8.07795005       6.20475987      -0.23422245      -2.11156444       1.14188763
Al       9.84892003       1.22276999       7.98456998       1.67855796       0.76160915       0.51901019
Al       5.77709003       3.82091995       8.08917010      -1.69517220       0.48228419      -0.69405802
Al       6.41401006       5.50732996       5.56477006       1.58007390      -1.09935480       0.76377958
Al      10.04040003       1.87086997      13.79930012       1.28432827      -0.65274705       0.30492320
Al       7.78728000       6.81435001      11.98299990      -0.05377563      -0.15195130      -0.55977383
Al       8.39940997       6.63239002       3.69093002       0.97588870       0.74340266      -0.08418270
Al       0.05006029       5.10777997       6.82998999       1.59811859       1.40321348      -0.71620649
Al       7.20010996      12.04800005       4.48594989      -0.39842372      -0.20885581       1.33245049
Al       2.56657002       8.15813997       9.37185007       0.99168528       0.17728359      -0.05424115
Al       2.11103003       4.96896002       3.54105999       0.94285216      -0.51734232      -0.39696347
Al      10.14059999       1.70524002       4.92218991      -0.43922678       1.26801792       0.05005536
Al       9.99954997       2.64395998      10.82630011       2.06356071      -0.90521091      -0.71173456
Al       4.93216003       1.34048996       5.94115008       0.51311212       0.09184496      -0.26627966
Al      11.26550000       7.14214997       8.82356999       1.06884967      -0.49708903      -0.39935028
Al       0.27054200       3.55331005      11.32429990      -0.34031803       0.44168753      -0.47997651
Al      11.42280004      10.77629998      10.23020008       0.65598305       0.00150309       1.03144485
Al       0.18549205       8.01568002      10.68590010      -0.48259247      -0.62221060       0.24861257
Al       5.61691995       5.40321997      10.98280001       0.36839429       0.58284074       0.58295103
O        9.90663000      11.64230001      10.40569993       0.04943023      -0.35001281      -0.79976879
O        3.97781997      12.46399999       6.19185999       1.88595051       0.84822359      -0.27453970
O       10.65699997      10.06010003       3.45247003      -0.08783669       0.98842138       0.36699142
O        8.88295999      10.02440005       8.34587007       0.55218000       0.52827039      -0.93670986
O        2.12049002       8.79812004       7.72825997      -0.69590365       0.74849121       0.16145502
O        6.04872006      10.33459998       1.92008995      -0.79458296      -0.00180752       0.92073637
O        2.38104994       6.86780001      13.50189989       0.55876165       0.15722822       0.90421030
O        2.89862000       4.39389000       9.51578014      -0.45991442      -0.76314903      -0.85038965
O        3.36715994      11.43169996       2.94514004      -0.71192295      -0.00938331       0.39769727
O        2.01909996      12.24340001      11.25429996       1.04600473       0.59222171      -1.09886908
O        8.57494006       0.80619303       9.18787986      -0.14198566      -0.35188632       0.42309919
O        8.19023003      12.51380006       3.15222016      -0.77505588      -0.57003223      -0.27550220
O        9.31443005       4.75877005       7.29188996       0.71848972      -0.35091851       0.25206055
O       11.75519995       2.02745995      14.32230008      -1.92524614      -0.20364802      -0.06685944
O        8.71109997      11.04869996       5.12562013       0.55549694      -0.40482793      -0.10369491
O        4.55540004      12.10719996       9.25189007      -1.67368996       1.14335678       1.31915995
O        5.58699001       5.24442005       4.04792994      -0.28592969       1.00016612       0.81194063
O        4.91128994       7.69000003      13.81800015       0.32764284       0.74373337       0.63527274
O       12.22829996       8.37627004       7.93769990      -0.16848486       0.24453020      -0.86114765
O       11.82470002       2.18122996       5.18197005       0.66626094       0.22200896      -0.98308522
O       10.32130005       2.80009005       9.08424992      -1.16216931      -0.38720148       0.87150395
O       11.60920004       6.73529004      10.45869988      -0.72161530       0.95073578       2.03368094
O        6.93847998       5.13938999      12.25310007       0.30176996       0.05777942      -0.29074999
O       11.63749999       1.09862994       7.76677985       0.43140493      -0.30937865      -0.34732195
O        5.46601999       9.30936994       9.21182994      -0.10491962      -0.37936400       0.47532977
O        9.03061997       0.51950501      14.43059987      -0.40787054      -0.55812236      -0.14414003
O        6.54305003      12.50860002      12.76990008      -0.37269060      -0.70828793       0.35670935
O        6.36740996       0.70135795       5.14397014      -0.35185465      -0.70649518       0.26697043
O        6.18711999       3.02101995       2.72192992       0.30223500      -0.26581137      -0.08863661
O        3.85188006       1.67526000      12.70599989       1.64968234       0.00876676       0.02801615
O       11.76300000       5.62038001       8.16760013      -0.18473353       0.24454567       0.60276502
O        8.32583000       2.97509002      10.93130003      -1.06273483       0.49354173       0.37156626
O        7.20640005      11.41030000      10.03730010      -0.53612689      -0.58937590       1.14431392
O        0.56273106       7.85770001      12.40099994      -0.96757662       0.14508300      -0.70858558
O        6.87186997       5.04088998       7.37141002       0.18532358       0.31699782      -1.48808646
O        3.37167999       4.22989005       2.45723010      -0.99600842       0.20376251       1.06973538
Al       4.09517000       6.21109996      13.53520016      -1.80483434      -0.35720228      -1.24236055
Al       1.93751006      10.75919999       3.56529986      -0.49017175       0.02825033      -1.13029191
Al       8.97140005       1.00439996       2.14454988       1.95785626      -0.01770569      -0.40512370
Al       9.67024999       8.86565994       4.21655992      -2.24853353      -2.59551219      -0.88765081
Al       6.13652002       8.87157997      13.67990003       0.13343521      -0.48012161      -0.05146225
Al       8.76397997       9.42978002      13.51859996       0.60308710      -1.99813245      -0.40562471
Al      10.75860004       4.16182003       8.08555000       1.60504488      -0.61951191      -0.49316661
Al      12.63880002       3.09587998       3.77530002      -0.05750557      -2.07486547      -0.07880397
Al       2.85553005       3.87804997       5.91903984       0.05678287      -0.30658294       0.31802617
Al       7.74686002       3.55748999      12.53039984      -0.07619602       1.58343930       0.07666409
Al      12.05520001      10.38969999       4.54060993       1.89939086      -0.01904361      -0.70197184
Al       5.50742999       7.99977001       7.59784012      -1.43363503      -0.18240420      -0.21776805
Al       0.75012695       9.88529006       8.38253995       0.52977796      -0.13236536      -0.57032749
Al      11.86679995      12.19139994       7.24638004       1.43478597       0.94029904       1.16870956
Al       2.33545006      12.15410003       6.41859002      -2.63462933      -1.47481029       0.86802799
Al       0.68758205       1.77877003      14.18490001      -0.71294447      -0.31978340      -1.38379593
Al       5.24559001      11.09689997       6.16109013      -0.06642427      -0.50020362      -1.24150059
Al       3.41808996       3.01261994      13.96379986      -0.96455302      -0.51023895       0.00772063
Al       6.12588000       9.21765995       3.30163015       0.43353225      -0.53527518      -0.41931640
Al       6.30271004       1.69936001       1.55998007      -0.77493000      -0.74834821       0.54024865
Al       9.68017002      11.59500005       3.50646014       0.53030567       1.21127518      -0.67107267
Al       2.47570006       5.49479998      10.76870006       0.05951586       0.81939339       0.89883181
Al       2.91087001       9.18561003       6.20406015       0.33107254      -0.25794826      -0.18660801
Al       8.54687994       8.43584001       8.95536998      -1.00706735      -1.09813064      -0.02040007
O        8.65675997       8.12423004      10.72419994       0.33621506      -0.07352829       0.25246093
O        9.46073006       6.16263003      12.22099984       0.82925982      -0.17810986      -0.01157025
O        9.23659994       2.37682999       3.39248004      -0.34342254      -0.70006541       0.87815023
O       11.99870003      11.61130001      11.82929988      -0.36369088      -0.29324323       0.44473387
O       12.17930005       3.53681996       7.14608010      -0.34134295       0.03639337      -0.11887308
O       10.29860002       8.80364006      13.08100011      -0.79640335       0.38408945       0.08205543
O        7.48506999       3.78028996       5.15835001      -0.02805953      -0.06714696       1.23847005
O       11.34910003       9.09210998      10.54019993      -0.43847407      -0.62796813       0.37372113
O        5.80881003       9.77006995      12.12720010       0.65939602      -0.10078314      -0.47138371
O       11.19440001       3.74966997      11.49009988       0.41148654       0.36989740       1.04274938
O        6.23965999       7.12159999      10.90780016       0.27146613      -0.33083049       0.30736818
O        7.21844999       7.63602998       7.97017995       0.88919986       0.46781146       0.57979473
O       11.67279996       4.39513005       3.31375990      -0.29556918       1.34017888      -0.03468279
O        4.07280996       5.82322997      11.70570013      -1.02277326      -0.42820312      -0.51218352
O        0.74244605       0.07773785       6.42913009      -0.86385996       1.97305583      -0.36054949
O       10.11869999       1.18872001      12.01100001      -0.04959098       1.63807249       0.35279105
O        6.68976000       2.42204005      13.13429999      -1.57291420      -1.23058809      -0.01811944
O        1.95066000       2.48421998       7.09445995      -0.20137363       0.05786912       0.33550744
O        7.35620995      10.18110000      14.45390000      -0.15397067       1.40006045       0.13397058
O        9.81183001      12.17759996       7.52442014      -0.22420551      -1.12821659       0.17441383
O        1.57218005       6.89554002      10.04479996       0.09062237      -0.97543235      -0.07106040
O        8.70263001      11.18549996      12.66670006       0.66857664      -0.67437596      -0.34291436
O        2.05330005       2.48866994      14.88829985       1.49601103       0.57316653       0.38284740
O        9.33606996       3.51980995      13.43389991       0.11399057       0.07079090       0.14329579
O        2.10362005      10.65140005       5.40933988       0.97122567      -0.62794855       0.70358332
O       11.59430006      10.90380005       6.17450997      -1.39918365      -1.58408574      -0.79952756
O        0.55135906       3.08459005       9.70863002       0.43657040      -0.79322663      -0.13065740
O       12.73057207       1.76453003       2.59523985      -0.03072821       0.12001772       1.20849507
O        7.20871997       2.75286999       8.13331004       1.17986737      -0.00672866       0.35352184
O        2.98563995       1.35023999       9.56001013       0.22610111      -0.57764881       0.60262089
O       11.91660002       5.55241003      13.63589990      -0.06625451      -0.26748712       0.19495300
O        7.94877997       6.47866997       5.41384995       0.58299648      -0.16260631       1.20371105
O       10.07830002       8.80718002       5.98810987      -0.34829503       0.45863429      -0.47778432
O        8.26186995       5.19266006       2.82695014       0.07980031       0.13884960      -0.46750272
O        3.92188005       7.06194998       8.61579998       0.56387706       0.27475725      -0.15001792
O        0.24619694      11.60730002       3.59777991       0.07669178       0.15196995       0.32494648
Al       7.00159005      11.06360006      11.79760011      -0.26121290       0.51813626      -2.04524526
Al       2.21901997       8.52200004      12.61180002       0.25625333      -0.21878700      -0.14190355
Al       0.98594294      11.43869999      12.54039997      -1.04310515       1.39465443      -0.26154067
Al       2.25111997       1.07011999      12.20959994      -0.88867590      -1.07953558      -0.29203517
Al       7.83768002      12.03840001      14.02039994       0.10497642       1.21722259       0.42405227
Al       1.41384003       7.94775006       4.12502994      -0.74831535       0.58122254      -2.35873013
Al      11.82129998       6.03120999       3.81899007      -1.09967891      -0.16509517      -0.26775334
Al       2.02950996       2.71063995       8.88180985      -0.30214192       2.27772156       0.09897854
Al       2.75225003      12.20340005       9.61845987      -0.82136418      -0.13887820      -1.31473147
Al       9.63152997      10.50459999       6.62763015       0.14023492       0.66344942      -0.29432463
Al      11.98440000       0.31020006       3.14214013      -0.12495427       0.12823628      -1.98615325
Al      10.54370001       4.80418999      12.86759988       0.34947227       1.54313634      -0.46072234
Al      10.25420005      12.23709998      12.01199999       0.49768306      -1.23792078      -0.45754241
Al       7.45529004       2.06522001       9.70134005       0.39790397       0.24516930      -0.76671891
Al       5.17483995       8.50253006      10.79939985      -0.30370996       0.72546157      -0.03555500
Al       3.24378998       5.45723998       8.04311992      -0.75036533       1.32230244       0.93922549
Al       8.74647997      11.72740005       9.00087008      -0.25530001       0.01536327       0.75609707
Al       4.42891000       6.76652005       4.56369003      -0.78922739      -0.43815838       0.61448958
Al      10.31180004       7.84054000      11.56049995       0.44212230      -0.38889994      -0.15584670
Al       5.75000006       1.29037997      12.20330012      -0.46620008       1.11414586       2.58008692
Al       4.71994999       3.79283001       3.50807013      -0.44314438      -0.00820282       0.24998628
Al       7.86284996       3.65300997       3.41373994      -0.33694622      -0.45645378       0.35941582
Al       8.17908996       3.48131994       6.79417013      -0.93725577      -0.13658989      -1.11249999
Al       0.21107397       1.99006001       6.63102006      -1.31776059      -1.01695568       0.32903934
O       12.25510002      11.12910001       8.77815994      -0.21221529       0.56854169      -1.34505909
O        5.37450000       6.86534998       6.16929986      -0.91770238       0.54191743      -0.33198867
O        3.40765995       8.49659996      11.07329988       0.28839157       0.43896995       0.45135763
O        0.01059580       8.75026996       5.05513002       0.29894163       0.45512311      -0.54865552
O        2.89184999       7.85499002       5.04987996      -0.53575362       0.73672458       0.61610364
O        1.18842997       4.98927998      11.85530003      -0.18070519       0.43819059       0.73182052
O        6.48209001      11.39379997       7.29081991       0.27937302       0.15925651       2.37111245
O        5.96116005       1.42961000      10.48910007      -0.29906746      -0.03047098      -0.92331300
O        5.04562998       1.90336004       7.67977991      -0.27479865      -0.08534981      -0.19557451
O        4.97203995       7.89454001       3.40463993       1.27489998       1.35669272      -0.14250048
O        7.60479002       7.93794000      13.38750003       0.73041562       0.95697084      -0.31731813
O        0.87899094       6.34952996       3.38765008       0.26420260       0.50963350       0.51920892
O       10.44130005      12.62130002       1.96326003      -0.08148859       0.15414485       1.25726377
O        1.15712999       9.37119994      10.02119989       0.60333729       0.04053105       0.02350247
O       10.65320004       0.11753799       4.38370991      -0.12561456      -0.71800297       1.02612266
O        6.04443003      10.65449999       4.61618999      -0.14805385       0.21810720      -0.40157243
O        9.68269994       7.24762999       8.21548001      -1.96725979       0.21985463      -0.16598768
O        1.15933000       2.44263998      12.34320015       0.11408250      -1.01657153       0.71537976
O        4.18050006       2.74095003       5.14603984      -0.09011958       0.21768417      -1.29529754
O        4.17420996       4.29162001       7.26221012       1.73726702      -0.54090567      -0.64256624
O       10.24079996       7.16758000       3.71183990       0.51944728      -0.00571592       0.15559851
O        2.01941000      11.45150000       8.12406005       0.98296919      -0.03061688       1.57116951
O        3.22489000       5.36616996       4.88933987       0.17541583       0.32823593      -0.84300730
O        4.05765002       4.54355998      13.96009987       0.55367420      -0.10302948       0.96800853
O        1.35861998       3.71390997       4.68918005      -0.30306986      -0.01126739      -0.66302425
O       11.95230000       6.20630006       5.60147006       0.45819842       1.25025762       1.45934109
O        7.88303994       1.58805999       0.97661816      -0.03737328       0.28647704      -0.28055205
O        1.81934000       5.30494004       7.02808011      -1.02956502      -0.36637118       0.11911272
O        5.65244000       4.24744994       9.76680014       0.19810797      -0.72113698       0.09134751
O        4.59990004       9.51224997       6.70812989      -0.29446417      -0.33585972       0.05135817
O        1.77583003      10.10839996      13.12619995       1.06193119      -1.21890114       0.42229258
O        7.94301006       8.44796998       3.51388992       0.41773008       0.30924978       0.39094094
O        1.27588000       0.18756997      13.51850010      -0.04483498       0.06517625       0.21980731
O        5.18016002       0.42170703       1.65817004       0.42071439       0.60339998      -0.23066839
O        1.34996001       9.25430000       2.94212995       0.55430375      -0.52466980       0.87881348
O        9.28779004       2.04147006       6.57900012       0.00028032       0.59704555      -2.51198898
180
Lattice="12.74330416 0.0 0.0 0.0 12.74330416 0.0 0.0 0.0 32.74330416" Properties=species:S:1:pos:R:3:forces:R:3 step=0 confid=1 wdir=cand1 selection=->scf energy=-1298.49489389 free_energy=-1298.49489404 stress="0.017072048003260943 -0.0030334047488305483 -0.001915592432292219 -0.0030334047488305483 0.015591596248312951 0.0011967696351995103 -0.001915592432292219 0.0011967696351995103 0.013522633783772163" pbc="T T T"
Al       0.65279602       6.21737004      13.22320002       1.45266335       0.16168289      -0.73439826
Al       5.59418003      10.98030002       8.92464988      -0.82238867      -0.34367349      -1.79387709
Al       5.08043003      11.55800000       2.02724012      -0.23918412      -0.07770514      -0.20244652
Al       4.62593002       1.19631999       9.23391989      -0.62414622       0.42448232       0.50634153
Al       8.34445001       6.35345005       7.36502999      -1.50757227      -0.99578004      -1.58345795
Al      11.54149997       7.98967005       6.02439993       2.70728419      -0.20789966      -0.40789867
Al       9.96575001       1.30072995       8.03266007       0.15028154      -0.00935860      -1.02390641
Al       5.75068004       3.73404005       8.13971987       0.56114493       0.54226795      -0.18773233
Al       6.48221006       5.50943999       5.62970003       1.12899291      -0.13347593       1.90337262
Al      10.15500006       1.72868006      13.83240000       0.20076151       0.63800330      -0.17269570
Al       7.90201994       6.80677003      11.87629995      -1.06759846      -0.58383743      -0.43954544
Al       8.59234996       6.66625994       3.71005997      -0.72682235      -1.62996583       0.58406282
Al       0.12524196       5.26541999       6.84443994      -0.13015932      -0.20806240       0.26206064
Al       7.27382003      11.99100001       4.55849988       0.05321383       0.84220568      -0.64592077
Al       2.56456002       8.19844997       9.29279006       0.55041915      -0.58167533      -0.02447261
Al       2.25575000       4.90351997       3.43885995      -1.31669487       0.61830613       0.17140330
Al      10.13340003       1.93715006       4.97068013       1.33306545      -1.36621400      -1.21144719
Al      10.11550002       2.56581995      10.94719985       0.53448612       0.27525065      -0.66104184
Al       4.88675997       1.29553005       5.94289006       0.31099857      -0.13089546      -1.38139615
Al      11.26370001       7.20717000       8.86315010       0.10029409      -0.05520069       0.14544304
Al       0.29592501       3.56825999      11.44799985      -0.89894242       0.79113669      -1.10891755
Al      11.37360005      10.69119994      10.20889990      -0.07022229      -1.11287847      -0.25529334
Al       0.29958896       7.86881000      10.62119999      -0.82503928      -1.15762964       1.42024885
Al       5.69619006       5.25909995      11.12980009      -0.85469702      -0.32077725      -0.27685709
O        9.72274998      11.50730000      10.33399995       1.63278872      -0.55072028      -1.19113270
O        3.91382004      12.42040005       5.97086987      -0.30436867       0.66118474       0.79034730
O       10.79770006      10.23670005       3.53573986      -1.24648763       0.03120290      -0.47060929
O        8.82070997      10.02089997       8.06860010       0.33120322       0.89585818       1.14709801
O        1.98252005       8.76187006       7.60913001       0.44428642       0.54190199       0.36329949
O        6.23161005      10.31669997       2.06143985       0.26165609      -0.03825503      -0.09758452
O        2.34481996       6.94035006      13.73280011      -0.02881547       0.11044336       0.30560964
O        2.84244000       4.47355999       9.39891012      -0.15470140      -0.56641687      -0.31505037
O        3.54441000      11.48859996       2.69164989      -1.90149674      -0.42996676       0.88139334
O        1.79202001      12.40070005      11.12140012       0.02782989      -0.86371248       0.26185803
O        8.54833000       0.79831601       9.09813013      -0.35470903      -0.67085037       0.81825789
O        8.31012999      12.45379999       3.13336984      -1.12424712      -0.78717028       0.91787649
O        9.39125994       4.75621998       7.45750003       0.82721611       0.38871247       0.99410115
O       11.75239999       1.85262003      14.47230010      -2.45165002       0.04900654       0.38526298
O        8.74922998      11.12880003       5.14125015       1.00698367      -0.34200180       0.77788363
O        4.33999997      12.19549997       9.43546016       0.23063797      -1.32842817       0.62986197
O        5.68562000       5.33097996       4.20160016      -2.15782664      -0.23784045      -1.83802633
O        4.96509994       7.72238001      13.96739999      -0.68258803      -0.77296781      -0.24186920
O       12.12960001       8.29580002       7.68880986       0.17931330       0.45176024       0.55392311
O       11.82379996       2.32828998       5.22940986       0.88790070       0.26994645      -2.14770617
O       10.28660003       2.76391002       9.16421987      -0.62569950      -0.65289794       1.87966141
O       11.62979998       6.68757006      10.62859997      -0.28546433       0.21404246       0.09448798
O        7.19731000       5.12592006      12.21300000      -0.57048505      -0.28723924      -0.28092538
O       11.75559996       1.10111999       7.85500014       0.36763632       0.36677034       0.11283992
O        5.07948002       9.27368996       9.25250990       0.22327084       1.26124927      -0.31151412
O        8.96093997       0.49171097      14.16980011      -0.75343097      -0.70805096       0.19191002
O        6.32618002      12.56730001      12.80880011      -0.20120937      -1.38685756      -0.81216927
O        6.19300994       0.56861299       4.97729002       0.43163401      -0.55347599       0.90494136
O        6.23807001       3.00275994       2.91334007      -0.34676846      -0.67250315      -0.72858037
O        3.73273998       1.67295996      12.76979989       0.98980930       0.32746307       0.04522840
O       11.86789995       5.65940995       8.35477985       0.05508702      -0.19937732      -0.46955919
O        8.34383004       2.74247999      11.11589990       0.02171908       0.03593770       0.08931424
O        7.01558003      11.25390003       9.91370985       0.90915965       0.37133551       0.11880195
O        0.57928104       7.79147000      12.39010002       0.05573481       0.98095430      -0.96997854
O        6.87717004       5.09016005       7.39286998       0.29235469      -0.03403809       0.65206081
O        3.51195994       4.14851997       2.52144005      -1.42253935       0.08209863      -1.22004171
Al       3.98289996       6.20838002      13.61169998      -0.52161754      -0.05723743       0.16748418
Al       2.04410003      10.81449994       3.31103009       1.63044655      -0.49041521      -1.14045385
Al       9.11182005       0.96605702       2.22132016       0.27825846       1.34737325      -0.30862897
Al       9.76549000       8.86768995       3.98632014       0.90243369      -0.38892004      -0.08163227
Al       6.14031001       8.92887004      13.66660002      -0.40786551       0.09727073      -0.13390384
Al       8.73644997       9.39124006      13.28180006       1.37087422       1.41160336      -0.41979383
Al      10.88800001       4.13586995       8.31905985       1.43267695       1.25007095      -2.56093684
Al      12.68569997       3.05287999       3.73913013      -0.74901385      -0.38652932       0.36840065
Al       2.83027001       3.87779994       5.93462991       0.32271129       0.00940960      -0.85598404
Al       7.72938997       3.43875004      12.66069985      -0.13288034       1.17853847       0.22083653
Al      12.25880004      10.45859997       4.49643004       1.02603747      -1.04966808       0.90653363
Al       5.33408996       8.05322001       7.73343014       0.85259005       0.03169951      -2.05065563
Al       0.59149805       9.73383997       8.17045011       0.01220551      -1.05116526       0.47901006
Al      11.94940001      12.19299999       7.35579998      -0.22858524      -0.45794298      -2.41435437
Al       2.20706000      12.00900006       6.34358985       0.02684954       0.31750850      -1.10946079
Al       0.63391694       1.74582005      14.27230007       0.80342815      -1.28087203      -1.25675610
Al       5.19876002      11.14340004       6.05693008      -0.29496343      -0.95108452      -0.50792715
Al       3.08806005       3.08629000      13.96090012       0.04855861       0.16489239       1.29085104
Al       6.35413004       9.26299005       3.42163010       0.60423835       0.07838978      -0.19743103
Al       6.44174000       1.68021001       1.74392999      -0.67566926       0.17019180       0.29842135
Al       9.86122994      11.78560000       3.73958002      -0.73890652      -0.34670523      -0.57182106
Al       2.45533996       5.54357000      10.72789994       0.38755766      -0.84557897       1.65515837
Al       2.91383996       9.13004999       6.16368012      -0.46633776       0.07059156      -1.64514913
Al       8.63235005       8.51542998       8.94680990      -2.39467534      -0.88803056      -0.53285853
O        8.69687997       7.96015005      10.66629996       0.34163138       0.23813492       0.12570811
O        9.59845995       6.16813004      12.29779992      -0.41715830       0.88470694      -0.06294811
O        9.13557994       2.34815004       3.52685005       0.94922969      -0.93355881       0.63198797
O       11.84209998      11.46590006      11.83880003       0.84263330      -0.57898782      -0.26857085
O       12.17579997       3.62223005       7.13988998       0.26622726       0.91252038       0.70796752
O       10.35400000       9.04257995      12.70939995      -1.48174888       0.13517371       1.36663704
O        7.39249995       3.70201995       5.31188009       0.64404496       0.05122443       0.96690917
O       11.23890001       8.87138997      10.17080012       0.05817048       1.68236881      -0.12390496
O        5.68898996       9.69847998      12.01129994       0.94486604       1.27070450       0.07103189
O       11.26429997       3.78189001      11.63289998      -0.53775926      -0.15666677       0.30556204
O        6.14610006       7.00413999      10.93200008      -0.11121226       0.65625573       0.16845206
O        7.11641996       7.84073994       8.03734007       1.26890036      -0.28272693       0.79438666
O       11.67150002       4.33826000       3.23702990      -0.22857077       0.75947718       0.19824166