180
Lattice="12.72534155 0.0 0.0 0.0 12.72534155 0.0 0.0 0.0 32.72534155" Properties=species:S:1:pos:R:3:forces:R:3 step=0 confid=0 wdir=cand0 selection=->scf energy=-1297.95078995 free_energy=-1297.95078995 stress="0.020291757836140813 -0.0035071730276492624 -0.0015925073658396003 -0.0035071730276492624 0.015158879398622668 0.0012129867361499824 -0.0015925073658396003 0.0012129867361499824 0.012882648861580493" pbc="T T T"
Al       0.29637702       5.38119000      13.06919993       0.95965465       2.23892323      -1.64410310
Al       5.35578003      10.77449999       8.52711985      -0.16144341      -1.03012905      -0.46491002
Al       5.28762998      11.60380006       3.12866014       0.03615145       1.74385334      -0.68623738
Al       4.77325996       0.83975598       8.74444001      -0.59566816      -1.56735607       0.11826926
Al       8.59069000       6.34588999       7.50500992       0.69319413       0.84862912      -0.43114445
Al      12.03020004       8.48637999       6.11566994      -0.19641785      -0.15761462      -1.11435320
Al       9.90968998       1.14162997       7.92240987      -2.13618856      -0.35747188      -1.24557436
Al       5.30202997       4.01638999       7.67111001       0.99380150      -0.88198651      -0.00948304
Al       6.75300001       5.89845999       5.42392003      -1.24601550      -0.02725121      -1.29338078
Al      10.76380001       3.08931997      13.23670001      -0.07725130      -1.61683814       1.00950543
Al       7.57912995       7.34602002      11.79249992       0.16397743       0.23794199       0.20156467
Al       8.97656002       6.47582998       2.31735998      -1.25261207       1.87762582       1.22417846
Al      12.38419996       5.16478004       6.47672994      -1.24888342       0.38447334      -0.31168152
Al       6.63480004      12.47630000       6.08525992       1.12203950       0.58169204       1.70741479
Al       2.20873002       8.15268998       9.46406013       1.09985537      -2.05858117       0.23248580
Al       2.20724001       5.20369006       3.18936008      -0.86857480       0.80154929      -1.06696898
Al      10.46880000       3.11681002       5.37192994       1.04843233      -0.57180950      -0.74522990
Al       9.76301998       2.92538003      10.72829996      -0.18145186       0.30751033       0.43452899
Al       4.64952001       1.76985005       5.75073984       0.12068819       1.44839481      -0.85339308
Al      11.45460001       7.04774997       8.83002987      -1.18617573       0.12023261       1.29678871
Al       0.08380350       2.82959002      11.06459997       1.05890441      -0.47342047       0.03690776
Al      10.93849999      10.72699998      11.01710012       1.48634123       0.22320315      -0.50891876
Al      12.59410001       8.22211995      11.56870015      -1.24253844      -0.11749102      -0.23872801
Al       5.51877995       5.38165994      10.69749985      -0.75891835       0.10234434       0.99768973
O        9.55835004      11.73069997      10.70879991      -0.82831317       0.11595409       0.21132491
O        3.79415997       0.23900902       5.87207984      -1.58979055      -0.06507441       0.54226490
O        8.26246997       9.48272995       4.37235009      -0.74357714       0.27864249      -0.92945118
O        8.55618002       9.81912003       8.03758998       0.47354286       1.38406005       0.44220775
O        2.01701003       9.30701004       8.17211993       1.07225243      -0.02921384      -1.12635947
O        6.61757998      10.56140002       2.70337011       1.09747257       1.69676827      -0.99615314
O        1.98706005       6.40252998      12.75580013       0.15131872       0.80443639       0.47485967
O        2.65537004       4.00267003       9.15189015      -0.14645192       0.27716942       0.96358424
O        3.72670001      10.98289998       3.61087001      -0.26552750       0.19963938      -0.15946630
O        2.07173002      12.00829999      11.44370014      -0.68819027      -0.62506245       1.28660828
O        8.31243005       0.48915195       8.61874001       0.38009953       1.00946914       0.90240119
O        8.06407999       0.19956899       3.28668001      -0.30836112      -0.51623239       0.62886219
O        9.19675997       4.73622006       7.73611006      -0.58080150      -0.67701605      -0.53617010
O        1.40587996       4.38537005      13.96660013       1.01699010      -0.67973734       1.22034632
O        8.28223001      11.63190003       5.84643986      -0.86328751       0.52052149      -1.00813239
O        4.15111000      11.70150002       9.50716988      -0.20157519       0.13106020      -0.54685171
O        5.65752002       5.55302003       4.06727006       0.02012620       0.58325467       0.47359828
O        3.90636999       8.38909005      13.69640008       0.20543849      -0.05976072       0.23428018
O       12.29130000       8.15503004       7.82912006       0.11372823       0.88700437       0.08388654
O       12.11650000       2.19790000       4.91057985      -0.91476830       0.40991915       0.66227813
O        9.99298001       2.49730998       9.06143992       0.12025238       0.13733008       0.20877215
O       11.73450001       6.86567006      10.58919991      -0.20861992       0.05973410      -0.46459384
O        6.74832001       4.53238999      11.66760006      -0.94970462       1.24520394      -0.99278905
O       11.59470004       0.91259202       7.62428004       1.34131257      -0.44932936       0.25855051
O        5.30367001       8.94358001       8.96553013      -0.00533014      -0.26322209      -0.02256798
O       10.15509997       0.47427997      13.38890001      -1.51811097      -1.38692141      -0.70674314
O        7.13769994      12.32949995      11.86320008      -0.45239284       2.31471207       1.69345991
O        6.42707004       1.40172004       5.40153001      -0.66139128      -0.45342748      -0.07457695
O        6.37108006       3.09322996       2.99205016      -0.50422116      -0.22484630       0.45687709
O        4.13866003       0.92711494      12.47189994      -0.60652048      -0.60431857       0.09644549
O       11.77070004       5.53877006       8.14604012      -0.14954971      -0.55593406       0.18891568
O        8.21825997       2.16490000      11.09660012      -0.39968483       0.30502470       0.59852493
O        6.92973999      10.94460001       9.71912995       0.51846091       0.37047446      -1.01650559
O       11.97960001       7.14703003      12.99439994       0.27909210      -0.61968089       0.54099195
O        6.77494003       4.32973994       6.30466991      -0.32376566       0.57564320       0.91979065
O        3.52562994       4.61806004       2.27840995       0.27715107      -0.45298975      -0.27601050
Al       3.20492995       5.05106995      13.30120002      -1.89665736       0.96247405      -1.58764183
Al       2.19508006      10.46970006       2.98375003      -0.27723521       0.23149347      -0.00636193
Al       9.64957000       0.98296405       2.92946000       1.06733833       0.83200083      -0.72992954
Al       9.28303995       8.13052994       4.79147008       0.10257270      -1.56219232      -0.57302536
Al       5.51023997       9.03042996      13.62119986      -0.32933769      -0.16039230      -0.30397974
Al       7.99225994       9.40878007      14.13649996      -1.18368630      -0.22583918       0.07473700
Al      10.74909995       4.09375994       8.56708993       0.13678023       0.92413332      -1.31783443
Al       0.15409600       3.05621996       3.41338992      -0.70548249      -1.07199771       0.00402801
Al       2.71763005       4.29457995       5.48244996       0.38911553       0.52299093       0.02375274
Al       7.44179005       3.20226997      12.49249989       0.87012356       0.06701767       0.02786284
Al       0.73556495      10.85479995       5.32542003      -1.05258126      -0.43175589      -0.57882875
Al       5.36205999       7.07755005       8.06378989       0.47715930       1.57315599      -1.08898464
Al       0.31970194       9.66943006       8.49758000      -0.46511539       0.18715114       0.51282534
Al      11.98640005      11.93679998       7.98329013       0.54643785      -0.51635945      -0.25216281
Al       1.99899005       0.05436495       6.53432000       0.82125816      -0.20129220       1.01053830
Al       1.19233002       2.65295999      14.02479986      -0.16133802      -0.85237289      -1.21489557
Al       4.02250999      11.20250005       5.44085998       0.75504643      -0.85146341       0.47731111
Al       4.40980996       2.32439994      13.68140009      -1.12088882       0.32258939      -0.15736631
Al       6.78294999       8.96502005       3.18929987      -0.53021737      -4.06561367       0.41593714
Al       6.66677004       1.43210001       3.42038005      -0.55851948       1.13052338      -0.18604861
Al       7.85005998      11.20300003       4.04369014      -0.27518749       1.26201612      -0.01879890
Al       2.18367001       5.00733002      10.63030000       0.70546361       0.26040213      -1.55887820
Al       3.20478997       8.80457003       6.82630990      -0.02123415       1.06904947       1.71077411
Al       8.30057995       8.43625004       9.08865988      -0.94306438      -0.11872163      -0.45977029
O        8.02785998       8.78050997      10.81090003       0.09501396      -0.44148349      -0.87134410
O        9.32988002       6.75740998      12.22340006      -0.76569586       0.86530260       0.26806939
O        9.86393003       2.01506000       1.44996989       0.03763994      -0.46737345       1.37281247
O       12.05600004      11.54300003      12.11160015      -0.24998453       1.04049478       0.96355861
O       11.62559997       3.49841998       6.99980984       0.54638357      -1.94827841       0.84384579
O        9.51604006       8.72412997      14.56119996       0.81367276      -0.56276782      -1.21451683
O       11.04529996       4.78345003       5.12806986      -0.36775090      -0.60278504       1.10013664
O       11.00240004       9.16794000      11.78770010       0.12351206      -0.38220485       0.27311488
O        5.56481998       9.81962001      11.89189988      -0.83904490      -0.21419639       0.47833968
O       10.16099995       4.63337995      10.36510005       0.50312968      -0.60559533       0.19827532
O        5.87646996       7.16460004      10.99450000       0.44575599      -2.06734221       0.08094027
O        7.21389000       7.12939004       8.31631008       0.24372759       0.33068999       0.34813938
O       11.72759995       4.34389001       2.77517016      -0.14541566      -1.07270498      -0.17030237
O        3.77337999       4.99958004      11.50930005       0.51973867       0.04787801       0.30099077
O        0.41645602      12.70361697       5.66782986       0.37109521      -0.15635173      -0.83842482
O       11.13529994       2.26091003      11.61180008       1.20838933       0.73918535       0.41133804
O        6.13075003       2.08266999      13.09939986       1.23029605       0.67891041       0.13612250
O        1.66192999       1.88318003       6.98779015      -0.22405033       0.03083462       0.10300767
O        6.39702996      10.00330001      14.74140009       1.15205832      -0.11255663      -0.21176574
O       10.12650002      11.74610005       7.74431987       0.25209738       0.61677753       0.73597392
O        1.88666003       6.38353995       9.57022015       0.24749242      -0.28800928      -0.57808183
O        8.46531001      10.50419999      12.75089984      -0.44332911       0.09909129       0.63562423
O        2.67534005       1.69996998      14.23650010       0.78883335       0.72726692       0.95242909
O        9.05437001       3.48967003      13.15680010       0.23669119      -0.58536168       0.02713024
O        2.34868002      10.91960006       6.02118992      -0.93644772       0.78643834      -1.04159753
O       12.47390000      10.49950001       6.88183007      -0.47303473       0.04828385       0.76929496
O        0.33437502       2.67990997       9.37313015      -0.07397311      -0.74999921       0.26020264
O        0.55266197       1.49950004       2.73789011       0.11482290       0.66295081      -0.17247098
O        6.98744000       3.18704996       8.54026988       0.32576613      -0.16962826      -0.37117337
O        3.01894005       1.19409999       9.32562997       0.29307028      -0.09249480       0.54489095
O       11.42890004       4.68133006      12.92420016      -0.63811449       0.05550922       0.40588492
O        8.42903999       6.75617002       5.65128000      -1.16041946      -0.59614521       1.59804083
O       10.29350002       9.10096003       5.93278011       0.37409964      -0.23902161      -0.42788292
O        9.19418996       4.98948006       1.68690005       0.63983110      -1.74840779       0.20857327
O        3.52610001       7.24988006       7.87268011      -0.43724443       0.17278544       0.59416736
O        0.85341994      11.44380002       3.46554986       0.07573622       0.04431080       1.00725538
Al       7.03219006      10.62280005      11.42549994       1.35056934      -1.76573591      -0.17558113
Al       2.62424004       8.12222004      12.62429989      -0.26091163       0.12287053      -0.31846042
Al       0.96924905      10.97489994      12.57089999      -0.25462277       1.34546107      -0.69724975
Al       2.30107999       0.58815294      12.80670015       0.19499242       0.29077074      -0.91318912
Al       8.85708001      12.22130006      12.48610012       1.18824939       0.33269026      -0.34716526
Al       1.41149997       7.89536003       3.95754002       0.49268777       0.41245187       1.44122913
Al      11.68499996       5.91194999       3.94776005       0.30537889      -0.25570956      -1.50618450
Al       1.95588003       2.43696997       8.69802010      -0.26798998       0.63665524      -0.16531714
Al       2.44713001      12.25979995       9.73455995       1.10376794      -0.06873175      -1.41360548
Al       9.47646005      10.57120006       6.59786999      -0.97190162      -1.04491565       0.77219203
Al      12.61830005       0.27447200       3.74265987      -1.49409754       0.09489061      -0.22537335
Al      10.69130005       5.81151994      11.63049999       0.13659719      -0.20708178      -0.75363791
Al      11.89469997       0.26227705      13.30889996       0.90495864       0.40116947       0.28496286
Al       7.42834000       1.84389003       9.57001988      -0.14534246      -1.28018847      -1.49197503
Al       4.98127005       8.67545999      10.64569989       0.50972471      -0.13119224       0.58610331
Al       2.63974994       5.44218001       8.00532999      -0.29574835       1.16397656       0.05426414
Al       8.65272006      11.44940006       9.11746996      -1.41410828       0.47441271      -1.02257729
Al       4.47503000       7.11523997       4.64185015      -0.01943891      -0.58655802       0.20399121
Al      10.33639995       8.10012999      13.11049996      -0.27780977      -0.16534625       0.67852586
Al       5.80604996       0.78809402      11.86289999      -0.33359136      -0.13921561      -1.01545167
Al       4.87010999       4.01752000       3.27837007       1.09593016       0.28208465      -0.00815526
Al      10.02400006       3.52123002       2.36449985       0.03351407       0.91773883      -1.90871776
Al       8.06335999       3.42136002       7.10569006      -0.18880765       0.61577300       0.72643119
Al      12.62019994       1.94431003       6.60922994      -0.17915671       0.40905796      -0.70345372
O       11.91039999      10.87560003       9.52411015       0.68202474      -0.24426298      -1.70916016
O        5.54623004       6.96918995       6.25218010       0.15011052      -0.24859060      -0.05667731
O        3.27731004       8.36612004      10.91779998      -0.47614896       0.06780398       0.30591605
O        0.31937604       9.15462000       4.78081013      -0.09393618      -0.20429759       0.98154370
O        2.91199997       8.14850003       5.30674989      -0.85965687      -0.05795684      -1.90409818
O        0.70978201       4.49208005      11.39189985      -0.52332831       0.21131807       0.87553962
O        5.90089994      12.31159998       7.73918984      -0.23820606       0.82032961      -1.27680459
O        5.86084999       1.24276004      10.09220015      -0.36509095       0.12989606       1.32312699
O        4.73696996       2.18728006       7.57822992       0.39186248       0.91210591      -1.17160828
O        5.24237001       8.41150001       3.77295993       0.61981346       0.13089643       0.03776677
O        6.91391997       7.93954000      13.26919987       0.97413985       0.69081227       1.26847098
O        0.69304297       6.40518996       3.27611005       0.60075817      -0.23973316      -0.27004406
O       12.22700000       2.07037006      14.15219995      -1.41846329       0.22842635      -0.54887497
O        0.68569205       8.80368002      10.09199987      -0.50529502       0.19238091       1.16052243
O       10.83120004      12.59979995       3.59836991       1.09235187       0.12321601       0.18343974
O        5.87792001      11.51679996       4.85952996      -0.26605884      -0.58956669       0.31831816
O        9.64898005       7.38433004       8.56778011       1.27916401      -0.45818452       0.12987644
O        1.27063999       1.98857004      12.18590009      -0.58149086      -0.09406333       0.06564783
O        3.88000003       3.03310005       4.63369990       0.97076318      -0.15188792       1.83065536
O        3.78102996       4.55263003       6.94721989       0.78348450       0.06354895      -0.82385286
O       10.14220004       6.93285999       3.65482014       0.10636146       1.05801718      -0.88069860
O        1.40748997      12.10489996       8.23055005      -1.07392246       0.30280706       0.97958395
O        3.08419000       5.91018995       4.52762987       0.04386959      -0.68270817       0.72444076
O        4.25783998       4.04304996      14.08629994       0.91236265      -1.64439101       0.49669712
O        1.42713000       3.94223001       4.21267988       0.14819105       0.36310793       0.09434713
O       12.19550007       6.77890003       5.48635999       0.35733990       1.17738571       1.52122040
O        9.59529998       2.63225001       3.88252012      -0.08777589       0.42358240       0.70546286
O        1.40501998       5.01530003       6.74432015       0.22355850      -0.22794665      -0.28533692
O        5.24170002       5.46085000       8.89540005       0.31056634      -1.46865937       0.95378371
O        4.48411004      10.07879997       6.81205015       0.98077369       0.39583379       0.63125597
O        1.13161996       9.23549006      12.65249997       0.56433951      -0.72979874       0.05057598
O        7.68636004       7.63973006       2.49031995       1.29943790      -0.52085725      -0.27766570
O        0.93792003      12.35390003      13.80949984       0.18514515      -0.27733786      -0.93055997
O        5.32282000       0.57183104       2.76719009      -0.30576033      -1.63869828       0.06895665
O        1.92737005       8.86846003       2.65007001       0.52227669      -0.19658518      -0.91976796
O        9.24146002       2.25073001       6.51677005       0.36029342      -0.30194804       0.44485103
180
Lattice="12.72534155 0.0 0.0 0.0 12.72534155 0.0 0.0 0.0 32.72534155" Properties=species:S:1:pos:R:3:forces:R:3 step=0 confid=1 wdir=cand1 selection=->scf energy=-1295.45311142 free_energy=-1295.45311142 stress="0.01896546960897958 -0.003762845688629337 -0.0008145140635920582 -0.003762845688629337 0.015897084859022803 -0.000732894603975487 -0.0008145140635920582 -0.000732894603975487 0.014561909384466287" pbc="T T T"
Al       0.44319196       5.56553006      13.20670003      -1.20989414       0.46077158      -0.88031803
Al       5.40772004      10.66699999       8.56581986      -0.54163633      -0.24623465      -0.45028040
Al       5.28433997      11.62689999       3.16198991      -2.48001581      -0.06838905      -0.32144729
Al       4.79086000       0.68634104       8.66041999      -0.90077576      -0.43667660      -0.36426140
Al       8.70442999       6.42855000       7.49068014      -1.70611798      -1.23369735      -0.28131019
Al      11.92670001       8.53852004       6.15544988      -0.78026510       0.09476372      -0.48461577
Al       9.92357002       0.95363595       7.97439996      -0.94400491       2.67970347      -1.14538608
Al       5.26592003       3.97197002       7.70426994       1.21447347       1.18633352      -0.50776759
Al       6.61726999       5.97674998       5.40348011      -0.43198504       0.00082210       0.95177898
Al      10.77220001       3.09447997      13.28699984       0.70815842      -0.31944342       2.51622136
Al       7.50450002       7.02710005      11.93859992      -0.64122738      -0.23784372      -0.30459215
Al       8.96624995       6.62182007       2.02417004       1.99654584      -0.69568004       1.69132498
Al      12.23479999       5.18799997       6.46868016       0.42954978      -0.34194210      -0.41234600
Al       6.72610997      12.38210002       5.99482016      -0.36410371      -0.52460060       0.53918562
Al       2.24303996       7.89275006       9.41338985       0.63135517       1.07767870       1.29233076
Al       2.12619995       5.24194994       3.02505989      -1.91293549       1.58500588       0.21365301
Al      10.51549997       3.04901996       5.37490991      -0.75844249      -0.43406180      -1.34242408
Al       9.89040001       2.81128004      10.77040013       0.06723281       0.36991082      -2.03113442
Al       4.69793001       1.82659005       5.83001992      -1.13915064      -0.09014554      -1.53376001
Al      11.28540006       7.06281996       8.87762004       1.74301049      -0.29643880       0.86538089
Al       0.25147705       2.87843001      11.22869988       0.02030496      -0.28951527      -1.55946619
Al      10.93510003      10.74439997      10.99559989       0.28132861       0.29879834      -1.20172617
Al      12.47019998       8.26222997      11.63620009       0.36746515      -0.43000324      -1.16164023
Al       5.38489002       5.37700005      10.82950013       0.80805781       0.28567275      -0.05653537
O        9.31409004      11.36940003      10.66700016       0.81340543      -0.25632540       1.50309648
O        3.64904005       0.26954602       6.06356007       0.96518582       1.18701823       0.44444501
O        8.29479005       9.39977994       4.06174995       0.37095898      -0.29196045      -0.23515036
O        8.31901999       9.93356004       8.06224002       0.74985098      -0.62761665       0.89265411
O        2.04219004       9.33353003       8.30793992       0.24552824      -0.36397883      -1.12541494
O        6.55026000      10.59659997       2.61835000       1.76576066      -0.20617514      -0.88753446
O        2.08746999       6.53255994      13.13610002      -1.24454919      -0.15781777      -0.08777491
O        2.76981998       3.97049999       9.07666015       0.66375177       0.27863765      -0.53729175
O        3.58195001      11.19239995       3.65495988       2.23827203       0.81124813       0.61145238
O        2.21660001      11.99739997      11.29990008      -1.33561799      -0.65954968       3.15292805
O        8.40056004       0.54143198       8.83262008      -1.01670037       0.24588560       0.26291610
O        8.04018002       0.28099794       3.15888003       0.34682637      -0.87429078       0.99302925
O        9.28762998       4.72501005       7.62566989      -1.05591883       0.41053718       0.07811588
O        1.35304001       4.44547998      14.22419995       1.03987972      -1.72120081      -0.37245065
O        8.13604001      11.41419998       5.64715006       1.63812457       0.65198235      -0.29852085
O        4.04722005      11.65470003       9.26629991       0.74288262       0.14658521      -0.59525460
O        5.59762999       5.51947997       4.11659991      -1.23937584      -0.12110150      -0.83304329
O        3.91322997       8.47475005      13.89959991      -0.36226156      -0.26888883      -0.80282065
O       11.98409995       8.33890003       7.89340998       1.06280072      -0.38103497       0.92231640
O       12.07379999       2.24524005       4.92465993      -0.07547642       0.22792000      -0.93090515
O       10.12420004       2.48481000       9.01889993      -0.79609411      -1.32708541       1.14718246
O       11.60050000       6.77439996      10.60889991       0.03737965       1.10382786       0.97442622
O        7.07104995       4.99497995      11.72349985      -1.41098195       0.40640429      -0.06056971
O       11.65909994       0.92008801       7.70532991      -0.02800613      -1.29364220       0.53048001
O        5.30231006       8.95054001       9.21880006      -0.10358430      -0.33844575      -0.94242017
O       10.11930002       0.27478504      13.27550015      -0.73972690      -1.18048722       0.12593893
O        7.16793001      12.56190006      12.15680006      -0.81146249       0.12016301      -0.53097188
O        6.33263006       1.20693006       5.37490991      -0.22306583       1.88243978      -0.88121757
O        6.11467003       2.98102999       2.90267005       0.20272708       1.10340935       0.14333750
O        4.25473996       0.75694900      12.51450015      -2.15094555       0.08560833       0.59102136
O       11.77240002       5.56217006       8.12851014      -0.33741720       0.88437884       0.47911597
O        8.19211996       2.42813998      11.04039991      -0.86355884      -0.28814303      -1.10956055
O        6.86946005      11.01599999       9.79410992      -0.43284823       0.30884365       0.09049921
O       12.09570005       7.19165004      13.08729999       0.30244359      -0.63756148       0.13501043
O        6.70916999       4.51783004       6.42586985       0.36756339      -0.35799952       0.25504081
O        3.43783004       4.58374998       2.20068988       0.67451044      -0.63925378      -0.40706990
Al       3.07930996       5.10641997      13.35299998       0.25579873      -0.82242446       0.41714292
Al       2.15557996      10.60509999       3.02074996      -0.44851766      -1.65040094      -0.13722994
Al       9.65647006       1.10082998       2.81931010       0.20994428       0.74752721      -0.65185959
Al       9.26962998       7.95306996       4.78124996       0.37883499       0.64331515      -1.95145673
Al       5.60952004       8.88903996      13.83920005      -1.02894064       0.85035309       0.08783271
Al       8.06368003       9.19454003      14.29989988      -1.12742536      -0.45788675       0.40384751
Al      10.83000004       4.05982005       8.50174004      -0.71925498       0.12265844      -0.14345011
Al       0.12074097       3.06144994       3.34813984      -0.12395322       0.56497984       0.47162210
Al       2.72010004       4.39739995       5.50397996      -0.08341637       0.08433739      -2.18640688
Al       7.54339999       3.41517995      12.45000014      -0.87895734      -0.32443223      -0.65315331
Al       0.60410594      10.90200002       5.36783993      -0.41665247       1.53028528       0.19793490
Al       5.35705995       7.14002995       8.09417013       0.67344028       0.16574944      -0.66712437
Al       0.32041494       9.65925004       8.68015010      -0.56551196      -1.52811826      -1.36112999
Al      12.02760000      11.95320002       8.00245016       0.13287038      -0.76915478      -1.08215530
Al       2.01728999       0.02145849       6.72073009      -1.54019237       0.34812118      -0.73236726
Al       1.19999996       2.62621998      13.93000011      -0.19561875       0.40790805       1.45985836
Al       4.07467994      11.32409998       5.66864014      -0.08373884      -1.75901974      -2.22104795
Al       4.38966001       2.42301994      13.64279990       0.01970630       0.15412048      -0.30947545
Al       6.96290999       8.89901001       2.92246987      -0.94410386      -2.47169789      -1.05210555
Al       6.55862004       1.45080003       3.40708996      -0.03537058      -0.84034951      -0.47094177
Al       7.88576996      11.17700000       3.75849991      -0.17187951       0.58415705       0.58974119
Al       2.31638005       4.83642996      10.51360012      -1.07846167       0.65329351      -0.32580500
Al       3.15879995       9.01424994       6.83066989      -1.11921371      -0.43490972       0.28284518
Al       8.24299995       8.40785000       9.22540992      -1.29655014       0.12275813      -3.16126351
O        7.96732998       8.69477999      10.87059989      -0.30764988      -0.60992791       0.97538178
O        9.33072002       6.71007005      12.19769987       0.55557462      -0.29346895       0.51894613
O        9.97933004       2.03991997       1.36104990      -0.31587009      -0.44491272       0.09592512
O       12.10390000      11.74749996      11.84330013       0.09523103       0.13595509       0.58888502
O       11.69440004       3.37209996       7.11846015       1.06866416      -0.16999165      -1.51776919
O        9.65505004       8.55808997      14.56790014      -0.02762036      -0.21048065      -0.74341759
O       10.96880005       4.74351002       5.12804989       0.64793458      -0.22730056       0.69715311
O       10.94749999       9.25454002      11.92899994       0.72104983      -0.93621846      -0.10572243
O        5.62608003       9.82569000      12.17840010       0.19739337      -0.68578858      -1.61629377
O       10.46029998       4.51435004      10.30449991      -0.70518843      -1.16831601       1.36118347
O        5.71083997       7.09010996      11.09050011       0.58802807      -0.21078696       0.54517334
O        7.18728003       7.12997998       8.33418008       0.99807513       0.51059049       0.51287995
O       11.84710007       4.32203997       2.49496989      -0.28940911      -0.72057355       2.00991348