180
Lattice="12.71672681 0.0 0.0 0.0 12.71672681 0.0 0.0 0.0 32.71672681" Properties=species:S:1:pos:R:3:forces:R:3 step=0 confid=0 wdir=cand0 selection=->scf energy=-1296.12535151 free_energy=-1296.12664509 stress="0.015229230637391662 -0.004679173471060052 0.00058476850669072 -0.004679173471060052 0.015740370420214787 -0.0011931761986674473 0.00058476850669072 -0.0011931761986674473 0.010479105987463927" pbc="T T T"
Al       0.55441801       5.78520997      13.37029992       0.68366154       0.01322325      -1.20771443
Al       6.01004997      11.06850002       8.50426001       0.31616143       0.29557009       0.06631585
Al       4.86679003      11.34010006       2.33351989      -0.27867286       0.21354700       0.71250199
Al       4.73529997       1.14286000       9.29935990      -0.99500996       0.77821658       0.29709182
Al       8.36356995       6.12030005       7.14106000       0.33422305       0.58383828      -1.23547286
Al      11.85350001       8.22146994       6.05095012      -1.10091482       0.22119415       0.74656858
Al      10.00649997       1.16643999       8.05697001      -0.96779409       0.01902980       0.07181152
Al       5.79692004       3.94753994       8.01243011      -0.36751988       1.56203092       0.07599705
Al       6.56844004       5.97003997       5.13909993       0.14350571      -0.00535355      -1.20369643
Al      10.90500005       3.96146005      13.38699985      -0.47182778      -0.37938565       0.79308020
Al       7.44161006       7.17123006      11.87149988      -0.18545551      -0.99576499       0.12582265
Al       9.03525996       6.12289998       2.77601002      -0.59661649      -0.23620443      -0.33615416
Al       0.36510994       5.13043003       6.51779000       1.08881140      -0.70249497       0.77041695
Al       6.59260004      12.33679997       5.20711016      -1.21730766       0.42672505       1.48537893
Al       2.68899003       8.19026004       9.22922996      -2.54293477       0.01306134      -0.46502462
Al       2.01845000       5.02950004       3.58237002      -1.20837916      -0.00670473       0.50146784
Al       9.95789003       1.82787001       4.93273002      -0.24530699       0.53219527      -1.84154209
Al      10.13739998       2.94124004      10.68059990       0.59843049      -0.98196885       1.15195885
Al       4.69200002       1.70158999       6.28340999       0.51013001      -0.06382670      -0.49390900
Al      11.19349998       6.89192000       8.77539007      -0.56904806      -0.40327319      -0.41553507
Al       0.21597313       3.01854999      11.77329997      -0.16695658      -0.79898815      -0.95857933
Al      11.60970001      10.79300002      10.71720011      -0.25064464      -0.16537840       0.32680262
Al       0.08717316       8.16467004      11.14199998      -0.44923248      -1.41468639      -0.56298217
Al       5.35637994       5.40288006      11.17369987      -0.93819081       0.56595857       0.07714411
O       10.06780006      11.63640005      10.75429989       0.07717601       0.05599023       0.01177877
O        3.77027004       0.14812494       6.43735004      -1.03669925       0.53449917       0.91633932
O        8.31035999       9.83151005       3.53797015       0.28510137      -0.16053402       0.70962147
O        8.90631006       9.89053995       8.34930999      -0.75122745      -0.82151422       0.61213131
O        1.85234005       8.67071006       7.58465989       0.30602410       0.43982825       0.14779295
O        5.61407004       9.82119005       2.03788991       1.06150746      -0.32237721       0.09429205
O        1.94678005       6.02449999      14.34720012       0.85974456       0.95176197       0.69626262
O        2.85698003       4.17911001       9.50451013      -0.26233432      -0.10488342       0.80817237
O        3.11280001      11.35360001       2.30636009       0.10244610       0.19998198      -0.15630717
O        2.40961003      11.76630001      11.45800004       0.44860359       0.93226814       0.43569390
O        8.75688000       0.66731405       9.24541001      -0.34814268       0.69768587       0.02927659
O        7.23748001      12.63505363       3.58645012       0.63220809      -1.37321495       0.51518684
O        9.49313995       4.71756001       7.01787989      -0.36084620      -0.28233134       0.20341511
O       12.42060002       3.01107001      13.75080004       0.13886754       0.15600910      -0.43282273
O        8.22033001      11.44950002       5.70143994       0.63660459      -0.86967789      -0.38554215
O        4.73499998      12.09139995       9.37386014      -0.17269658      -1.32222294       0.20454785
O        5.91678995       4.75918999       4.03657994       1.52415198      -0.46545257       0.39902637
O        3.79071994       7.72385997      13.54259995       0.40387054      -0.12041944       0.84388959
O       11.82459997       8.23203996       7.93666013       0.72271570       1.06282431      -1.36894692
O       11.80620001       1.72312996       5.11769011       0.34956016       0.04708287       0.07958302
O       10.16430005       2.94503001       8.97190014       0.35252795      -0.55785536       0.14976377
O       11.77230002       6.76702000      10.47449990      -0.74092497       0.83560922       1.16094544
O        6.95725002       5.32531006      12.03659994       0.35732279       0.85751994       0.29105991
O       11.70379997       0.95656605       7.99209993       1.49037153       0.22908083       0.24683370
O        5.95845999       9.31047002       8.55747998      -0.18447845       0.34991614       0.95934948
O        9.43400005       0.10947321      13.33810012       1.04695672      -0.47584825      -0.17627295
O        6.83970003      12.34359999      12.42760016      -0.90488411       1.03613460       0.30724975
O        6.29929001       1.28937004       5.84015985       0.17368032      -0.66953462      -0.17253458
O        5.96766003       2.50411006       3.03888008      -0.63183756       0.15901852      -0.03952103
O        4.26029995       1.31328995      12.62539993       0.13360845      -0.19543827       0.01922570
O       11.90299999       5.49385005       8.10537015      -0.08822595      -0.65593442       0.19522598
O        8.37427998       2.93742999      11.03050006      -0.32971560       0.10309622       0.54625263
O        7.25491999      11.31519994       9.86075014      -0.08459456      -0.32983718      -0.47922717
O        0.86469202       7.36833004      12.50380003       0.13886462       0.83520935       0.24745376
O        7.01397998       4.89172995       6.68736996      -0.25774343      -0.03304324      -0.24103567
O        3.18039996       4.07626997       2.79116015       0.18187461      -0.99940269      -1.07252524
Al       3.63763000       5.68606999      13.88240013      -1.41789084       0.20340837      -1.47743213
Al       1.60670998      10.73739995       2.46317987      -0.06451934      -0.01681204       0.62900845
Al       9.79650001       1.13426997       2.36906007       0.57948432       0.29454107      -0.11141400
Al       9.07360000       8.23649005       4.25825016      -0.02968254      -0.66538993      -0.71220546
Al       5.14292994       8.45189995      12.71849995       0.93928990      -0.75639594       0.17111057
Al       7.92503999       9.29699995      14.13880013      -0.73810578       0.65068567       0.39639779
Al      10.92019997       4.03875003       7.82888011      -0.19171779       0.97663012      -0.68933621
Al      12.19409999       2.82011996       3.60248001      -1.38987469       0.98597115      -0.00279961
Al       3.15521996       4.60582995       5.99676009      -0.97885571      -0.26486194      -1.05722769
Al       7.70740999       3.73387998      12.61549984       0.77233027      -0.01443021      -0.08044708
Al       0.64607203      11.01140001       5.36106984      -0.08644864       0.09301755      -0.69270471
Al       5.44663005       8.01272004       7.24977998      -0.71846355       0.61253548      -0.37015610
Al       0.38365398       9.55014001       8.29250001       0.18200849      -0.93846110      -0.92310760
Al      12.01110006      11.95890005       7.70886011      -0.89647175      -0.54661644      -0.70995467
Al       2.20833998       0.09864034       7.28341997      -0.32309176      -0.12745266       0.08271141
Al       1.22639999       1.75730006      14.06779993       0.99653284      -1.38212850       0.01126409
Al       4.33230003      11.18050005       5.92803010      -0.09269214      -0.90012760       0.08433321
Al       4.24045003       2.67933003      13.97490013       1.75000526       1.10248280      -1.18301088
Al       6.80283005       8.85124002       2.80805016      -0.01562870      -0.71947315      -0.82075051
Al       6.60187995       1.00168996       2.33975995       0.01002758      -0.27408490      -1.28895854
Al       8.60998006      11.56089995       3.92018004      -0.23230859       0.36222068       0.32197656
Al       2.28736999       5.08261997      10.93269995       0.70226144       1.04656936      -1.07451719
Al       2.65561994       9.12339006       6.02734991      -0.65678956      -1.13423830       0.97673128
Al       8.14370003       8.29799997       8.84300998      -0.60179474       0.32121332      -1.31443432
O        7.37361995       8.23591004      10.44200009       0.17094509      -0.34193659      -0.18517063
O        9.30335997       7.16427999      11.94409994       0.08936683       0.01801685       0.18975094
O       10.41289998       2.58765006       3.22837013       0.95134824      -0.67313481       0.33114772
O       12.29419995      11.80620001      11.96910010      -0.41071198      -0.11633189       0.44943845
O       12.17840004       3.47878995       6.77450016       0.75150033       0.58302218       0.58248731
O        9.60529004       8.93834998      14.13320001      -0.04282989      -0.48040926       1.03777236
O        8.48235003       3.17852005       4.77523988      -0.56818504      -0.51176816       1.06273765
O       11.31450002       9.21097003      11.54330008       0.33675517      -0.06036064      -0.08370396
O        5.51286995       9.80702005      11.67899990      -0.70438616      -0.12962348       0.25607743
O       10.84990000       4.32251006      11.55209989      -0.18350914      -0.48010009      -0.81127507
O        5.29526997       7.26699999      11.34240007       0.40973806      -0.14369120       0.17224094
O        7.15798000       7.45999005       7.55547984       0.67848183       0.13553043       1.09781025
O       12.49030002       4.51216999       3.22326010      -0.40161345      -1.30096968       0.51012293
O        3.68535995       5.34646001      12.03320002       1.30360092      -0.81375617       0.48975885
O        0.59192001      12.61110002       6.41881012       0.44388231       0.38156165       0.11859094
O       11.11550003       1.75950006      11.65269990      -0.30629532      -0.04978184      -0.26240889
O        6.28260999       2.74719004      13.07560008       0.27666009      -0.82647571       0.09250787
O        1.71021994       1.86175996       7.61293990      -0.20034858      -0.26811874       0.23535794
O        7.29783996      10.82729996      14.76490013       0.69757229      -1.05083442      -0.30083334
O       10.06529995      11.83879998       7.63513002       0.76630053       0.55387511       0.36703122
O        2.25659996       6.58467994      10.02389995       0.91850109       0.73962635      -0.96221364
O        8.32628998      10.11969995      12.28259995       0.49551478      -0.23294448       1.07388523
O        2.85831999       2.16510006      14.67720000      -3.18393686      -0.41966525       1.11010231
O        9.18843001       3.83738994      13.57080013      -0.39864136       0.13721530       0.03559743
O        2.37437999      10.78409996       5.58707993       0.54015335       0.45809805       0.26451360
O       12.42310000      10.41949996       6.78045984      -0.48677797       0.22283883       0.03225264
O        0.39881397       2.90868001      10.01889985       0.04630736       0.21705322       0.70634560
O        0.46691904       1.78214994       2.75956005       0.67553455      -2.24776138      -0.68347899
O        7.45665000       3.07637002       8.18632998      -1.07552784      -0.69421849       1.22969260
O        3.09247995       1.46077003      10.02610015       0.27260332      -0.37237093       0.71153553
O       11.53929995       5.72611000      13.42220010      -1.10206168      -0.02311410      -0.02947904
O        8.25426002       6.78376004       5.19659991       0.04548054      -0.22502709       0.64807982
O       10.05590000       8.99037004       5.70647995       0.42160871       0.15240870      -0.14723358
O        8.28896003       4.67967001       2.41444994       0.34550138       0.14450532      -0.09078364
O        4.18594004       7.46065005       8.58312008       1.20965736      -1.35758258      -0.20981741
O        0.40027996      11.62490006       3.64439995       0.75482215      -0.95598100      -0.14481251
Al       6.88928001      10.80960005      11.50469990       0.49718954       0.52412634      -1.18448724
Al       2.12797001       8.21761003      13.48799998      -1.94234145      -0.19105207      -0.10979316
Al       1.13148997      11.43440006      12.81660008       0.66600354      -0.42376353       0.82537672
Al       2.75971004       0.84269196      11.74500000       0.30041348      -0.04270542      -1.03452554
Al       8.08748002      11.82910004      13.60119986       0.56192963       0.50279028      -0.01655723
Al       1.25208002       8.20410995       3.65591003       0.84708255       0.72701817      -0.76652198
Al      12.03009999       6.02209004       3.86027015      -0.05618276       0.57708064      -0.85547999
Al       1.92261001       2.70176004       9.24555004       0.09783047      -0.91764406      -1.06405946
Al       3.22323995      11.17489998       9.91875984      -0.96667250       0.28648228      -0.47901736
Al       9.33120998      10.45030000       6.65250996      -0.04786249       0.14792219       0.17350850
Al      12.38020000       0.23781500       2.78239992      -0.02439949       1.81955780      -0.05598592
Al      10.70000005       6.05577004      11.71580000       0.84206677       0.41247970       0.74581102
Al      10.69680002       0.05307046      12.11379996      -0.30769283       1.44347247       0.14151178
Al       7.64647996       2.08089994       9.62607011       0.30992606      -0.42011113      -0.40119746
Al       5.30651995       8.58563999      10.06770012       0.34828227       0.04950459      -0.58786099
Al       3.32408995       5.71365003       8.46246014      -0.15616273      -1.19687556       0.08699176
Al       8.98893000      11.52779996       9.31845992      -0.12053977       0.55486658      -1.08642171
Al       4.35035994       7.24525006       4.40355986       0.15124201      -0.46877324      -0.02916181
Al       9.79483005       8.87505998      12.46059988       0.29953847       0.47169396      -1.07364260
Al       5.97550994       1.22388996      12.19899988       0.38490743      -0.13134159      -1.05000720
Al       4.59192002       3.57570005       3.66365015       0.34072100       0.17786373      -0.20747213
Al       7.44398999       3.49293998       3.35237012      -0.00717353       0.48243392      -0.25561807
Al       8.20489000       3.39340005       6.56697993       0.99152021      -0.21487168      -1.24216711
Al       0.01667315       1.78578006       6.67500990       0.03817861       0.00334213      -0.25920404
O       12.17950004      10.87349995       9.13170990       0.40743207       0.32951474       0.26221048
O        5.28376998       6.87907000       5.91066014      -0.53994618       1.01132093       0.62860999
O        3.66208999       9.44239004      10.07110004      -0.40770184       0.27696312       0.05827848
O        0.34125603       8.96392001       4.99440988       0.10307742       0.33660177      -0.18849907
O        2.83139003       8.23195997       4.53894986       0.24681055      -0.03599419      -0.81536257
O        0.98765006       4.71848006      12.00000006      -0.80141384      -1.00128283       0.67410315
O        6.00511003      11.45030003       6.84440010      -0.87094574       0.22249289       0.34220081
O        6.11374000       1.46212003      10.37159991       0.41639262       0.41059969       0.79823130
O        4.88044004       2.31297995       8.01738996      -0.00395203      -0.61062643      -0.18068725
O        5.89906995       7.54785996       3.57423010      -1.28216374      -0.13630150       0.98648964
O        6.76991000       8.07037005      13.45089987       0.35075298      -0.18975739      -0.38013367
O        0.95197099       6.58635003       3.26548006       0.05060161      -0.89515958       0.33490914
O       11.04090002       0.02747322       1.74968990      -0.34701842       0.22752270      -0.21448735
O        0.99648500       8.87296006       9.84830993      -0.16862160       0.49529463       1.69842457
O        9.78413999       0.17537320       4.04971014       0.14460560       0.07507825      -0.11216781
O        5.11257003      11.39590004       4.43160006       0.84138000       0.72057585      -1.03194791
O        9.39256005       7.03542000       8.50717016       0.55231482      -0.52158336       0.61713431
O        1.50136004       1.88572005      12.29989990      -0.19895007       0.59155891      -0.29774141
O        3.98121002       2.98056996       5.32590001      -0.14976620       0.55547596      -0.11749330
O        4.34805999       4.76080998       7.27174991       0.40297889       0.30584081       1.18938607
O       10.48800001       6.91103006       3.46381998       0.50881383      -0.46455399       0.47447670
O        2.17825004      11.56169996       8.55530988      -0.12908091       0.14871604      -0.19150356
O        3.42479002       5.71605997       4.59431016      -0.00081797       0.89459935       0.17017279
O        4.47465997       4.34487000      14.44189999       0.61886650       0.00955516       0.24650802
O        1.45959004       4.30567006       5.21120008      -0.25413426       0.16898590       0.42323756
O       12.12260006       6.40804995       5.62411003      -0.08523167       0.95360745       0.09419500
O        8.22777006       1.66847996       1.94747003      -1.02039353       0.02803368      -0.25045143
O        1.98356001       5.55372002       7.30285992      -0.29633562       0.05315852      -0.54906376
O        5.57926004       4.90606997       9.57432010       0.10342036      -0.59753431      -0.29731783
O        4.32055003       9.30142003       6.45367012       1.15372093       0.98734287       0.44942642
O        1.48749003       9.80575995      13.46419987       0.39741412       0.01803001      -0.56801267
O        8.24364003       7.62168997       2.58862006      -0.20193883       1.21223352       0.34454892
O        1.23323002      12.64978240      14.00960014      -0.27857275       1.65460068       0.45924442
O        5.46463998       0.00743623       1.49176987       0.54428334       0.44015191       0.57924549
O        1.02345006       9.17724005       2.24971992       0.13960952       0.13614291       0.22231941
O        9.43837003       1.91337003       6.62822989      -0.42045819       0.34414692       0.08141119
180
Lattice="12.71672681 0.0 0.0 0.0 12.71672681 0.0 0.0 0.0 32.71672681" Properties=species:S:1:pos:R:3:forces:R:3 step=0 confid=1 wdir=cand1 selection=->scf energy=-1300.0166109 free_energy=-1300.0166109 stress="0.01782210643277413 -0.0027364842571543785 0.0007747826137796057 -0.0027364842571543785 0.015579998775375964 0.0007607055827536889 0.0007747826137796057 0.0007607055827536889 0.012589913894716595" pbc="T T T"
Al       0.50060501       5.98527995      13.14419986       1.98178985      -0.58801050      -0.60410994
Al       6.01788004      11.25089998       8.62516009      -0.14180065      -0.35177855      -0.97360751
Al       5.26119995      11.20139999       2.79776010       0.64403623       0.38193877      -0.02852925
Al       4.61680996       1.20545999       9.37607015      -0.46669263       1.93129861      -1.40415758
Al       8.31150004       6.10144000       7.26196009       0.12254352      -0.02423197      -0.09766481
Al      11.77150001       8.20358005       6.13348984      -0.82235005      -0.99732720       0.55216267
Al       9.95289998       1.21609003       7.98659011       1.00031730      -0.82227718       1.32073071
Al       5.71164994       4.00937999       7.88866011      -0.12137148       0.08113800       0.86265634
Al       6.50757003       6.09006005       5.23596009      -0.19857184       0.07260625      -0.86205082
Al      10.98450006       3.72321002      13.54079987       1.32842705       0.03974755       0.53885724
Al       7.60164002       7.00431005      12.01250014       0.47062819       0.56502931      -0.35821566
Al       8.73358003       6.09840998       2.32392996       0.73582722       1.46906504       0.52186983
Al       0.37631605       5.15151996       6.63735001       0.44686915      -0.28703072      -0.75713887
Al       7.26266994      12.48549997       5.52471007       0.09397762       0.60382910      -0.71272468
Al       2.38137000       8.21642000       9.30968006       0.62199101      -0.30099628      -0.99883861
Al       1.93475995       5.01720004       3.60304994       0.16226435      -0.61909083      -1.11703969
Al       9.58677003       1.90922998       4.78059004      -0.00133391      -0.53696346      -1.12556755
Al      10.17729998       2.80153001      10.77019989      -1.14819875      -1.03471053      -1.54455667
Al       4.82631002       1.70408997       6.16045006       0.54123145       0.38368464      -1.24302622
Al      11.10689996       6.78682999       8.82277992       0.51604710      -0.82804836      -1.04328042
Al       0.02421176       2.91923006      11.39749995       0.83339920       0.65199764      -0.43745730
Al      11.63340004      10.92450000      10.81849993       0.76004048      -0.69828818      -0.61848711
Al      12.40910003       8.08112000      11.04739989       0.13188751       1.19577857       0.49510083
Al       5.46906006       5.47973003      11.07919989      -1.05486675      -0.63604990      -1.35183228
O       10.16400006      11.83259994      10.75259993      -0.34887543       0.23562944       0.17061191
O        3.89044998       0.14924300       6.03484007      -0.95343583      -0.26148963       0.69124587
O        8.62330999       9.36820002       3.69977988      -0.66539816       0.39576936      -0.24905393
O        9.01671999       9.91975994       8.46952989       0.25246118       0.42554333       0.00741589
O        1.72466996       8.73196005       7.64637999      -0.01001603       0.33132918       1.58984202
O        5.99746995       9.86161003       1.96307984       0.09971361       0.59244255       0.87516216
O        1.95838000       6.58630005      14.04080012      -0.03161981      -1.22357258       0.93205493
O        2.67264001       4.13913002       9.32795988       0.09040882      -0.21731914      -0.04417003
O        3.89772000      10.96810006       3.90527986      -1.42302612      -0.51885115       0.08054457
O        2.51249000      11.92079998      11.30720014      -0.91929404       0.19036800       1.14188107
O        8.71275995       0.78408196       9.23290993      -0.61764333       0.45783355       0.20682553
O        8.53673006       0.42031999       4.22557007       0.54839336      -0.87233669      -0.73552236
O        9.41825000       4.54005001       7.30802000      -0.82998465       1.09820097      -1.01974728
O       12.48780004       2.81972002      13.89360004      -1.38263208       0.63816199      -0.25375525
O        8.66421003      11.22460001       5.69722995      -0.82072696      -0.09080494       0.37262114
O        4.58380001      12.17100005       9.29325005       1.51393322      -1.39201428       0.29883231
O        6.07283995       4.87320994       3.97478000       0.10119568       0.27986111       0.83319809
O        3.94319006       7.81562997      13.36990013      -0.67770988       0.58122564      -0.00400362
O       11.78499996       8.17491998       8.01491985      -0.05543692      -0.92403345      -0.04273719
O       11.44900000       1.81913998       4.96016986       0.49169881      -0.21939320       0.79833890
O       10.31619995       2.78309000       9.03317988      -0.63046227       0.34400525       0.62870931
O       11.44219999       6.68913005      10.56819995       0.58987177       0.60062687       0.32518488
O        7.02910004       5.29493997      11.95950003       0.80347961      -0.21541951       0.67439395
O       11.72850005       1.00468996       7.93033010       1.46857490       0.69087570      -0.61416450
O        5.90935002       9.45119001       8.75576003       0.51752633       1.05408608      -0.32228495
O        9.48212002       0.14345803      13.36249993       0.74044544       0.45253969       0.33944139
O        6.69416994      12.54449998      12.63199987       0.51510139      -1.36713708       0.07406706
O        6.59711003       1.48408004       5.77561007      -1.16686166      -0.45006936       0.83641909
O        5.85677005       2.86911001       2.61754001      -0.83868281       0.39394582       0.82209475
O        4.18420001       1.70818005      12.40999987       0.79979358      -0.34222021       0.94624195
O       11.93730006       5.38221995       8.22113011       0.18127843       1.07923734       0.29827899
O        8.40828997       2.85154999      11.16670012       0.47530434       0.40498959       0.06344421
O        7.30017004      11.45440003       9.90451007      -0.29514027       0.00459536      -0.48240921
O        0.66945403       7.63078001      12.40030001      -0.74767792      -0.46413438       0.24350706
O        6.94479997       4.85535998       6.62926014      -0.33832495       0.23350741       0.44028899
O        3.01108997       3.99150001       2.60222007      -0.60394637       0.54859129       0.41896315
Al       3.56505997       5.93162998      13.55000014       0.24028329       0.97140560      -0.99192632
Al       2.17052997      10.59849997       3.57174003       0.82272297       0.44098389       0.18174362
Al       9.07886994       0.72304295       2.40199992      -0.86200826       0.73591173      -0.76663627
Al       9.21430003       7.90925001       4.55597008      -0.61488765       0.89862050       0.29991147
Al       5.42563003       8.48692996      12.70910011      -0.06859779      -0.13962051      -0.29176259
Al       8.17248994       9.28799003      14.30769991      -1.01379534       0.17926813      -0.44374165
Al      10.99740004       3.96803002       7.91174994      -0.22419052      -0.65462631      -0.56722757
Al      11.70320000       2.50622002       3.27639992      -0.15845989      -0.46879919      -0.70043838
Al       3.15246996       4.64028999       5.89528000      -0.94203080      -0.35446750      -0.92942499
Al       7.86647997       3.79255000      12.67129986      -2.11112670      -0.88481092      -0.24565196
Al       0.03107281      10.83180002       5.14765012      -0.02773472       0.19585938      -0.07767221
Al       5.46663994       8.19816997       7.41049010       0.02464667       0.13276319       0.01873806
Al       0.21039901       9.47272999       8.39801015       0.68701786      -0.36261066      -1.07254244
Al      12.11700000      12.01179998       7.79223999      -0.40494856      -0.56949342      -0.76590673
Al       2.15832001       0.05357315       6.78945007       1.77594154      -0.50635400       0.14617209
Al       1.42742995       2.12995001      13.80739997      -0.50625214      -0.40920526       0.53722385
Al       4.83679000      11.29739996       5.61348004      -0.59767207      -0.23622804      -1.10720434
Al       4.32818998       3.06138997      13.73539995       0.70595381       1.20229591      -0.50941968
Al       6.90830004       8.64371995       2.76462002       0.61947608      -0.00489508      -0.91296222
Al       6.06738994       1.30794002       1.93933993       0.78339518      -0.65242138      -0.53309875
Al       9.31887005      11.18749997       3.98532003       0.70393201      -0.39288243      -0.27417263
Al       2.26920999       5.05649002      10.77650015       0.40215300      -0.20137816      -0.48574474
Al       2.68952999       9.18043996       6.26565985      -1.93052087       1.48437552      -0.18639943
Al       8.33390997       8.37908995       9.00706997      -0.64930112      -0.97139868      -0.63039798
O        8.17749995       8.41276995      10.83540008       0.12146840      -0.43327034      -0.40906544
O        9.35679006       6.81042994      12.29589995      -0.12110249      -0.63269513      -0.44926804
O        9.96466995       2.10021003       2.98361990       0.30719430       0.67252144       0.07715242
O       12.30869995      11.73570001      12.21459987       0.12951893       0.75001550       0.38684636
O       12.26340004       3.43984001       6.77790008       0.09092965       1.27103987       0.54386417
O        9.69676005       8.79605006      13.85699984       0.91854451      -0.08012196       0.14176969
O        8.37063002       3.27887995       4.67505013       0.00153962       0.19699779       1.69235587
O       11.09539997       9.35260003      11.35469992      -0.03634947      -1.84802032      -0.05984280
O        5.52791002       9.88096998      11.58110000      -0.60528979      -1.08256394       0.43925895
O       11.07100000       4.09236998      11.52330001      -0.29981378       0.35117074       0.75416874
O        5.68311996       7.31327997      11.23219999       0.19405434       0.85795064       0.06308103
O        7.13375005       7.49238998       7.90292984       0.41519253       0.16756201       0.75878350
O       12.01429997       4.22738004       3.30478005      -0.08721204      -0.62274086      -0.05527330