180
Lattice="12.7123276 0.0 0.0 0.0 12.7123276 0.0 0.0 0.0 32.7123276" Properties=species:S:1:pos:R:3:forces:R:3 step=0 confid=0 wdir=cand0 selection=->scf energy=-1300.92831745 free_energy=-1300.93019658 stress="0.012881582530953882 0.0001702297589786426 0.002685830334892377 0.0001702297589786426 0.009565783329398088 0.001340134478387216 0.002685830334892377 0.001340134478387216 0.011542683134875513" pbc="T T T"
Al       0.58160895       5.80635995      13.02720000       0.00050564       1.41528100      -0.30686703
Al       5.71941005      10.81070005       7.60185000       0.64260224       0.58040059      -1.77742482
Al       5.14591004      11.53470003       2.59425016       0.47932032      -1.62248700      -0.15152450
Al       4.61661004       0.80750599       9.30466993       0.68009260      -0.38642850      -0.05964748
Al       8.18368001       6.33568996       7.20558987       1.85332800       0.07424647       1.37542403
Al      11.62580000       8.70014997       6.23015013       0.51167239       0.46635699      -3.23927029
Al       9.77143002       0.83968204       7.91158013       1.54470668       0.97504891      -0.10289967
Al       5.53315996       3.89343000       7.93741992       0.07104139      -1.00905894       0.39969386
Al       6.90686005       5.15147995       5.11575006      -0.23423577      -0.56499106      -2.06015045
Al      11.04790000       3.27417998      13.39289994       0.13214999      -0.14173529      -0.44355400
Al       7.54047996       7.13410994      11.86459995       0.15336572      -1.51399141      -0.64786552
Al       8.69942003       6.61103999       3.75080006       0.19875244       0.75964882      -0.38910485
Al      12.44339996       5.69300998       7.13332016      -0.55238864       0.34138823      -0.06417696
Al       6.96503001      12.10130004       5.14326996       0.58761787      -1.13988035      -0.99956232
Al       2.72054997       8.25493006       9.19650007       0.28871719       0.57554671      -0.71991292
Al       1.54680005       5.40786001       4.95849013       0.82633580      -0.29961005      -0.95574022
Al      10.44229997       1.89944001       5.01078013      -1.13895299      -2.03066772      -0.58004336
Al       9.92998999       2.66684001      10.70399993       1.19370020       0.52496169      -0.74592178
Al       4.77910002       1.12791995       6.56698995       0.76381657       1.06815061       0.06149939
Al      10.87019997       7.58170006       8.81512995       0.77390967      -0.60797084      -0.21771985
Al       0.21957406       1.77075999      11.25750004      -0.63866899       0.23457301      -1.81525557
Al      11.91070004      11.58039996      10.43209997       0.59907245       0.56918739      -1.55505166
Al      12.62553698       8.78023001      11.17339992       2.29165426       0.23524529      -0.11843877
Al       5.54148996       5.36055998      10.88750006       1.91655381       0.99699709      -1.45796567
O       10.16730004      11.49720006      11.00709993       0.75032956       0.13061997       0.26555629
O        3.38168000       0.12369705       6.10326000      -0.09216024      -0.91076672      -0.03603449
O       10.01760005      10.50680003       3.07737002       0.11462719      -2.37976920       0.24078474
O        8.88669003      10.19149999       8.78044016      -0.53035168      -0.96625631       1.47062796
O        2.13305001       8.90403994       7.57280996      -0.98307393       0.93414967       1.21149898
O        5.58311000       9.92101000       2.10742007       0.60192895       0.50518966      -0.67563509
O        1.68946999       6.64630005      14.34000001       0.18285658      -0.54138114       0.68413568
O        2.82898994       4.22009004       9.06414992      -1.09643864      -0.51453358       1.40723638
O        3.46735002      11.64589997       3.06179012       1.10727727       1.23007798       0.21054065
O        0.48188404       0.09950473      10.53829989      -1.29113201       0.32491138       1.06295854
O        8.59633996       0.23518594       9.19046007      -1.74177367       1.45046476       1.00159260
O        8.11772998      12.35809999       3.83229988      -0.88769309       0.24923357       0.46483997
O        9.26923994       4.74615005       7.77496004      -1.46934634       0.11539008      -1.25371207
O       11.64610006       2.27377001      14.57620002       0.39135169      -0.67217184       1.75345499
O        7.37840999      10.98850000       6.54482015      -0.08707433      -0.45666413       0.66790550
O        4.19016001      11.91530000      10.26530014       2.23726146      -1.80124145       0.58530944
O        5.54222003       4.27719000       4.25572989      -0.04393549       0.76377142       1.26568103
O        3.02624001       7.53184003      12.42059993       0.42330993      -0.14304069       0.66881128
O       12.06629995       8.41986997       7.85768984       0.17525764       0.29021637       2.42731746
O       12.06730003       2.25391005       5.48420995      -0.16253151      -0.45736079       2.69071553
O       10.10389997       2.49948997       9.00279991      -0.87051847      -0.39980647      -0.48425155
O       11.17069995       8.29698003      10.47699993      -2.33727299      -0.14911469      -0.79513469
O        7.31679995       5.28895004      11.65780014      -0.82708305      -0.16280714      -0.08349672
O       11.61260003       0.88809605       8.01191015       0.62051610       0.35368815      -0.24165061
O        6.85893000       7.37773001       7.92731999       0.83075037       2.32049521       1.32114979
O        9.01939999      11.32789995      13.43070002       0.93269159       0.60209881       0.73911265
O        6.46673995       0.45016005      13.43900011       0.59365951      -1.56425790      -0.44383916
O        6.35775996       0.96072704       5.54508006      -0.40537153      -0.01576372       0.51113279
O        7.12798997       2.43183001       3.00423016      -0.18531502      -0.45883933       1.00908972
O        3.93256998       1.88309005      12.96049989      -0.51706166       0.43845688       0.37027513
O       11.58470003       5.95462002       8.75045996       0.02658203       0.61786757      -0.41876363
O        8.17869995       2.46980999      10.99670003       1.19272827       0.68324061       1.71782756
O        6.34389996       9.96239994       9.06737012      -0.62504820       0.77003212       0.34562641
O        0.19927095       7.72404000      12.51100012       0.70286389      -2.03637080       0.75891174
O        7.57752000       3.46637003       5.47103996       1.31137035      -0.14666067       1.53267230
O        3.94126000       4.86072995      14.14430014      -0.10215504       0.76815549       0.58021150
Al       3.53785997       6.55536000      14.11110007       1.05814821      -1.27226322      -1.04720348
Al       1.96072004      10.92510006       2.92032010      -0.12444795      -0.88113709       0.04113583
Al      10.13539998       1.88766001       1.60545005       0.72251670      -0.79315382       0.43683592
Al       9.63023000       9.06278005       3.91924009       0.42651645       0.63764963      -0.65587614
Al       6.05135994       8.86605996      13.69840004      -1.55276437      -0.33373860       0.75003272
Al       8.58792999       9.63899998      13.84419987       0.18979148      -0.33355952      -0.42232260
Al      10.74790001       4.34290002       8.62925000      -0.64975059      -0.66183101       1.56537692
Al       0.34692298       3.07119004       4.36244993       2.05931706       0.94301032      -1.35359540
Al       3.91641999       4.07681994       5.20486989      -0.75017319       0.78767144      -1.05464164
Al       7.78188999       3.69998003      12.25810014      -1.96795012      -0.44973195       0.05109366
Al       0.47800004      10.91590003       5.11136007       1.21984425       0.35994263      -1.72656286
Al       5.49703000       6.51435003       7.24737006      -0.38248583      -0.17725609      -0.61319518
Al       0.64933095       9.80608001       8.30718993       0.18915231      -0.55509989      -1.54541020
Al      11.86150003      11.94779996       7.30257015      -0.46503744       0.70954559      -0.41841898
Al       1.95786994       0.07318322       7.20224013       0.61393222      -0.04573107      -0.19702821
Al       0.05117246       1.00890002      14.24339985      -0.69528778       0.03026696      -1.57309615
Al       3.87098003      11.38500004       5.04948012      -0.97370371      -0.50933224      -0.78458888
Al       4.39713996       3.72243000      12.99440000       0.14526852      -1.00932708       1.04094686
Al       6.38065003       8.53616005       2.57924011      -0.76994791       0.51457390       0.47229239
Al       7.32047000       0.75281603       2.48430991       1.10830336      -0.02362936      -0.14010507
Al       9.76159996      12.15059997       2.95909009      -0.79041246       1.94337890      -0.46895808
Al       2.55870005       5.05966999      10.68810011       0.71076234       0.08450851      -2.25474802
Al       3.47860005       8.65894995       6.42699002      -0.30947569       0.53672338      -0.59896507
Al       7.74404005       8.69380003       8.98541004      -0.31204933      -1.28548054      -1.55880214
O        8.13556995       8.34975996      10.67319997       0.67214886       0.48907047       1.51306621
O        9.51213998       6.80784996      12.01549995      -0.86779272      -2.94093422       1.42180297
O        9.44241007       3.41923005       1.26679993      -0.26177894      -0.00618341      -0.84439935
O       11.95919999      12.21249998      13.41430002       0.93080568       0.09957984       1.06314520
O       12.09339996       3.91456005       7.53303994       0.23620721       0.06498424      -0.14264172
O       10.21590003       9.29934998      13.03750013      -0.45288212      -0.04343244      -0.07426568
O        9.99484002       2.71001997       3.56919987      -0.53623796       0.15629504       0.06477551
O       12.42120004      10.45870002      11.78530003      -0.31777650       0.26111875       0.26637298
O        5.36090995       9.64419996      12.28170012      -1.08945876      -0.54869503      -1.01845575
O       10.30939996       4.40917002      10.52770011      -0.00827888       0.64916420       1.06048421
O        5.75468002       7.11629997      11.40789987      -0.16622640      -1.11709435       0.11813765
O        6.79728996       5.15477003       6.95644003      -1.49556955      -0.68840904       0.92374860
O       12.44699997       4.78693005       4.52342010      -0.05660717       0.49685841       0.29519197
O        4.14315999       4.46685004      11.44940004       0.13278309       0.76282233      -0.50165218
O        0.51468998      12.58379999       6.24323016      -0.13343842      -1.41633689      -0.26375634
O       11.20719996       2.19409995      11.91469986      -0.54112091       0.04650514      -0.80899373
O        6.14712000       3.09621998      12.84130009       0.43192946       1.13284385      -0.24159711
O        1.66098001       1.83913998       7.51879994      -0.18092589       0.27097205       1.52694413
O        6.90888004      10.31320006      14.28289998       0.99124256      -0.11438365       0.47118997
O       10.04859995      11.95199998       7.14549013      -0.33889644      -1.48689618      -0.52195682
O        2.50575995       6.52993000       9.65573012       0.40218276       0.59214629       0.32901791
O        7.24014995      11.25499997      11.28649984      -0.55355613       0.28287927       0.64453441
O        1.56831998       0.08985823      14.54210004      -0.53138413       0.16244306      -0.00914155
O        9.33062002       4.01646003      13.05260014       0.62365566      -1.05105099       0.63350644
O        2.26178000      10.52090004       4.91163005      -1.31748050       0.04522122       0.36169118
O       12.38640005      10.36730004       6.56005003      -0.13842816      -0.05893132       0.48535493
O        0.61881094       2.78348998       9.90937006      -0.59704424       0.06682402       1.14377910
O        0.40152001       2.06324001       2.97273997      -0.01105151       0.44642666       0.87115196
O        7.09904998       2.72199003       8.24687004       0.33391468      -0.22306120       1.44881861
O        3.04792000       1.24487998       9.99599002      -1.94320040       0.89519859      -0.20230405
O       11.69610006       5.01076999      13.13009989      -0.47115280      -0.58906624       0.16308541
O        8.32375994       6.43910996       5.44462999      -0.34957416      -0.13061224       0.76743718
O        9.87501007       9.30321999       5.83729994      -0.05356323      -0.15785739      -0.18189719
O        7.99229998       5.08894000       3.35478004       0.38120815       0.63238297      -0.24092590
O        3.93181004       7.33148002       7.70883992      -0.00741255      -0.09617784       0.13583018
O        0.60053099      11.86980004       3.46877989      -0.85256777      -0.46551363       0.61421081
Al       5.39383005      10.52830001      10.65739991      -0.42202150       0.22816646      -1.33447185
Al       1.69603006       8.16857001      13.45779989      -1.28677096       1.00419396      -1.58878036
Al       1.00325995      11.34320000      13.15759984       0.17338895      -0.21769547       0.13450869
Al       2.47223995       0.88865501      13.20440006       0.01790159       0.63555402      -0.95987295
Al       7.32239998      11.67450004      13.13100014      -1.66608160       1.77997811      -0.76446821
Al       1.51762004       8.43527006       3.78760994      -0.20596757       0.08978772       0.78271290
Al      11.92849997       6.49470999       4.20659990      -0.20864726       0.48307738       0.33832607
Al       2.13981004       2.59682000       9.14856997       0.94302239      -1.02687671      -1.64421979
Al       2.32904003      12.21749999      10.30290002       0.95574154       1.50402923      -0.26658184
Al       9.08663994      10.38890006       7.06500014      -0.13703580       2.48173050      -2.22042829
Al      12.27239996       0.56577803       3.14340999       0.75818601       0.04475542      -0.98838785
Al      10.21210006       5.23788996      12.09219989       0.40428303       1.47640280      -1.50881100
Al      10.74979999      11.08369995      12.72910008      -1.04364945       0.00202446      -0.07514986
Al       7.38881999       1.63704003       9.68284014      -0.24199735      -0.00503443      -1.70444926
Al       4.39552995       8.18610997      11.55719992       0.09644437       1.32287861       0.30388178
Al       2.98859995       5.68853002       7.98949991      -1.20237296      -0.25537357      -0.82047355
Al       8.55073995      11.40889998      10.11010010       0.91619270      -0.06986814      -1.18407143
Al       4.34959001       7.00204005       4.20557011       0.15676615      -1.93899237      -0.22913131
Al       9.78154001       8.35992003      11.56040016       0.60359251       1.61144552      -1.38256707
Al       5.57331998       1.44737998      12.39550009       0.94638451      -0.39786051      -0.91258428
Al       6.25780000       2.57000996       4.69829006      -0.37592988       1.00848555      -1.56018939
Al       8.57337005       3.50769997       2.77592003      -0.48849363       0.59563011       0.31564339
Al       8.33848005       3.26717002       7.14374002       0.51293104       0.87400919      -2.36955644
Al      12.62840005       2.21693001       7.25780987      -0.66900033      -0.42513754      -0.80786974
O       12.10169997      10.99949998       8.80522989      -0.33306804      -0.10514971       2.07941275
O        5.46858998       7.00588997       5.53763016       0.81417727      -0.56937227       0.85874437
O        4.17571995       9.06314006      10.05270011      -1.79796321      -0.65776162       0.52230224
O       12.61139998       9.00615006       4.56061009       0.23635445       0.96684294       1.02141906
O        3.12169001       8.08749002       4.76547006      -1.27901858       1.47727312       0.68965937
O        1.52041002       4.89883006      11.96050006      -1.00202544      -0.01591376       1.15997404
O        5.38220997      12.58720003       7.80358987      -0.14262892      -0.67802966       1.81924591
O        5.85415004       1.39557000      10.55580000       0.05434751      -0.57052387       0.35272252
O        4.65531005       2.26881004       8.15052013      -0.33172159      -0.76968404      -0.03875118
O        5.29287001       7.27857995       2.83179007       0.37698185      -0.45821336      -0.55016409
O        7.67851003       8.15340001      13.35470012      -0.07779609      -0.26505460       0.28756172
O        0.94065199       6.78478001       3.78853013      -0.42206210      -0.96954023       0.42275393
O       11.30260001       0.54438700       1.69361010      -0.18075707      -0.03759884      -0.20114489
O        1.09031994       9.01153004       9.88798994       1.05577274      -0.18338619       0.69228166
O       10.83259996       0.21410306       4.20903991       0.07425743       0.99493005       1.24621573
O        5.56007996      11.26420000       4.40753013      -0.01744596       1.35970275       0.33293255
O        9.19629000       7.54734996       8.34123987       0.10002863       0.16238841      -0.34892019
O        1.00313994       1.90875001      12.78499989       0.76960967      -0.86811746       1.70723847
O        4.53553996       2.53585002       5.53953009       0.92098337      -1.63693653       0.07173195
O        4.23204001       4.77371000       7.00813990       0.09137367       0.81771714      -0.67697232
O       10.39070000       7.27625004       3.59337002      -0.61855983       0.18093507       0.03797886
O        2.03742000      11.60190006       8.66206013      -0.69214878       0.20622909      -1.43181926
O        3.27491996       5.56708001       4.50119011      -0.11252228       0.62691445      -0.15780581
O        4.91402002       7.64303997      14.25090013       0.17688154       0.61672482       0.53927750
O        1.94180995       3.57423006       5.08237989      -0.05089543       0.91757139       0.05943705
O       11.60770006       6.89957996       5.97086012       0.39321298      -1.57093690       0.08417346
O        8.89862004       0.62564102       1.71786989      -0.47438149      -0.54561042       0.03893493
O        1.44558004       5.91027001       6.84569996       0.96126381      -0.54079015      -0.05390896
O        5.54049001       5.22809003       9.15929994      -0.15930684      -0.35016294       0.81407007
O        4.43431005      10.22519999       6.40813006       0.67737608      -1.16559330       2.14445790
O        1.60542994       9.81697994      13.70140009      -0.15125995       0.94741194       0.57463498
O        7.98856002       8.34320001       3.31062004       1.31616599      -1.03193262       0.37136212
O        2.31318000      12.17640002      12.16279997      -0.35105205      -0.85300583       0.27934119
O        5.90573997       0.12806501       1.85171990      -0.45714003       0.09005631      -0.12935108
O        1.71596998       9.32242006       2.33874006       0.16995042       0.61064337       0.12076217
O        9.33610005       1.86245998       6.49071985       0.47871704       0.15609830       0.53073831
180
Lattice="12.7123276 0.0 0.0 0.0 12.7123276 0.0 0.0 0.0 32.7123276" Properties=species:S:1:pos:R:3:forces:R:3 step=0 confid=1 wdir=cand1 selection=->scf energy=-1299.47900857 free_energy=-1299.47900857 stress="0.015351562499843964 0.00219442359497448 -0.0010480600504341102 0.00219442359497448 0.008702285833529496 0.002450491387172787 -0.0010480600504341102 0.002450491387172787 0.012066446944124577" pbc="T T T"
Al       0.62556703       5.88505002      13.06660003      -0.62990262      -0.94492570       0.25910139
Al       5.86617997      10.91390000       7.57589996      -0.81505095       0.35041589      -0.56456845
Al       5.00129994      11.26599994       2.36706991       2.67222845       1.10416349      -1.83891479
Al       4.64490996       0.69588006       9.51136997       0.18008881       0.88541406      -0.92629565
Al       8.08577996       6.32060005       7.28371999       0.25230643      -0.21573211      -0.57112224
Al      11.52590005       8.80534003       5.93014996       0.99626017      -0.63778732       0.48387207
Al       9.87892000       0.86200895       8.01692004      -0.16445108       0.51964807      -0.80052706
Al       5.44811004       3.78324005       7.82082992      -0.33396756      -1.90468734      -0.72442629
Al       7.10266994       4.88922005       4.97171016      -1.25899001       1.46593074      -0.16501160
Al      11.01829999       3.18302000      13.37159996      -0.47387399       1.41705121      -0.98022763
Al       7.57830994       7.01275005      11.85650005      -1.37518880       1.43080686       1.21928845
Al       8.63152005       6.65832998       3.61231995       1.53283460      -1.83350325       1.97780088
Al      12.29399998       5.47881005       6.63985993      -0.69442881      -0.57163886       0.50810055
Al       6.77259003      11.88550002       4.93180014      -0.10149085       1.03230841      -1.43317331
Al       2.74749998       8.32471006       9.30982016       0.33969147       0.84140539      -2.00901207
Al       1.62023001       5.42533997       4.83662003      -0.34132050      -0.16577658      -1.30077158
Al      10.69900000       1.66598994       4.96738984      -1.44402583      -0.28255597       0.68764637
Al       9.90856006       2.78362003      10.64229990       1.79111235       0.45828942       2.23055721
Al       5.04239000       1.03927003       6.73474008      -0.60601894       0.41223526       0.09399892
Al      10.79330005       7.45996999       8.62289988       0.59165405       1.05277645      -1.78734664
Al       0.19700002       1.77059994      11.14819997      -0.90053607       0.10595720      -0.17398008
Al      12.03090006      11.58850000      10.33519984      -0.27931788      -0.85333603      -0.62387686
Al      12.59600001       8.55740006      11.07269992       0.60250493       0.24373793      -1.02921497
Al       5.58568996       5.41105996      10.74239995       0.68270409      -1.23452958      -0.67237775
O       10.29479998      11.53619996      10.73990008      -0.32077193       0.75880220       0.81161056
O        3.63907005       0.03480076       6.28783996      -0.77467782      -0.51397064      -1.35667068
O        9.82617998      10.35999998       2.57378009      -0.09380956      -0.97464086       1.98310044
O        8.80023006      10.30579996       8.56512009      -0.52583918      -0.84094227       0.13600012
O        2.14162002       9.37461001       7.63484005       1.46941601      -1.49241336      -0.72121879
O        5.86620006       9.77070999       1.82295988      -0.69459016       1.30335160       0.27837877
O        1.51197005       6.64933995      14.58459989      -0.02125292      -0.72015078      -0.26660376
O        2.52881998       4.52758001       9.25931985      -0.48934159      -0.90196544       0.07329763
O        3.40221002      11.76489994       2.25089012      -1.94652407      -0.65036745       0.05672125
O        0.50663596       0.04065263      10.70949986       0.59719545       1.15436047       0.21414049
O        8.43817000       0.38441901       9.32236010       0.65829330       0.66903208      -1.50857979
O        8.03113996      12.35080006       3.79928006      -0.53966775      -1.65603409       1.35446036
O        9.18708004       4.79242000       7.69394992      -0.69448909       0.17702628      -0.07985766
O       11.42840006       2.18549001      14.65800014       0.88517074      -0.89773321      -0.12731709
O        7.23366005      11.03000003       6.38883011       1.82209470      -1.20522077       0.07235184
O        4.58651996      12.04399999      10.67379991      -0.70660072       0.65964163       0.60714959
O        5.52744004       4.11209996       4.27653002       0.74286540       0.28396747       0.21005177
O        2.96107001       7.78506997      12.97389984       1.39431981      -0.14944173      -2.22655170
O       11.82890003       8.65989994       7.78309003      -2.01756159      -1.54149911      -1.66844149
O       12.17879998       1.96941998       5.93518013       0.12827846       0.62545151      -0.45952574
O        9.93503005       2.49966998       9.00082998      -0.61305160      -0.06390835      -2.06437769
O       11.01480003       7.98535994      10.24349999       1.82358599       0.60506095       1.54215550
O        7.25757995       5.26721005      11.69610006      -1.22760522       0.56294660      -1.56689265
O       11.65439994       0.78194595       8.28337012      -0.30091155      -1.04281366      -0.02710309
O        6.74562998       7.32230998       8.12046993       0.38797606       0.70043251       0.39690547
O        9.17735994      11.44059995      13.45180012      -0.30140202      -0.49932495      -0.11699086
O        6.33208004       0.27518706      13.32080001      -1.46698031       2.94813562      -0.77381302
O        6.34821999       0.76545501       5.49969989      -0.30499001       0.67473997      -0.19880037
O        7.40385002       2.22366996       3.09707985      -1.59911040      -0.25280857       0.17581936
O        3.93684005       2.03544997      13.16020014      -0.94254800      -0.03701099      -0.31109957
O       11.68839995       6.01226000       8.43905987      -0.40165440      -0.07882978      -0.17939568
O        8.27275999       2.52996002      11.12479987      -1.27607469      -0.32797639      -1.07021542
O        6.24808995       9.92307004       8.93587998      -0.08002192       0.12347283       1.81661731
O        0.14300097       7.50799005      12.44630004       0.59616575       0.63525929       0.54551307
O        7.76937000       3.38258994       5.42190997       0.24966426      -1.15698404       0.66816537
O        4.13059995       5.08451001      14.30030000      -0.58971083       0.24989844      -0.42175574
Al       3.54749006       6.75661000      14.39269989       0.65603549      -0.93543937      -0.67201501
Al       2.00638997      10.85339999       2.68243998       0.67785154       0.67047179      -0.25627573
Al      10.30189994       1.79337001       1.41829988      -1.07574105      -0.54437509       1.07612275
Al       9.49963995       9.14818007       3.78730996       2.04853145      -0.08792635      -2.58884854
Al       5.87878997       9.04157995      13.85750004      -0.12709126      -0.77498880      -0.20088373
Al       8.61599004       9.59644000      13.63489985      -0.99599281       1.83270804       0.16763075
Al      10.69630003       4.52069006       8.66499999      -0.07109946      -0.36587233      -0.23603492
Al       0.52164604       2.92472000       4.77228992      -0.07573608      -0.74535629      -0.16621937
Al       3.93523004       4.00152000       5.18913984       0.03863667       0.77706457       0.19942975
Al       7.67714994       3.74382001      12.27350012       0.87431247      -1.32699028       1.49130274
Al       0.68816902      11.29039998       5.03988985       0.00615662       0.49125558       0.15658349
Al       5.34897003       6.37306001       7.52318012      -0.26452592       0.10964536      -0.46357534
Al       0.48734399       9.55041998       8.19029995       1.65789639       0.31045662       0.51068728
Al      11.93090006      11.88869996       7.26753001       0.12853983       1.56637413       0.31069642
Al       2.22033005       0.32594904       7.38271011       1.00400203       0.33087049      -0.08921098
Al      12.55862755       0.98775497      14.04190009      -0.37027144       1.41794743       0.85636528
Al       3.84282006      11.13119995       5.29415001      -0.18442413       2.51023038      -0.53376278
Al       4.39308003       3.86848002      13.08200002      -0.08537186       0.35584617       2.76180243
Al       6.44760001       8.52137002       2.71799991      -0.33084063       0.39506912      -0.50936903
Al       7.43122996       0.59031905       2.32625016      -0.20896537       0.36541192      -0.21773527
Al       9.59934998      11.98349998       3.04018003       0.84224685       0.31931614      -0.08168266
Al       2.70328002       5.27452994      10.86049996      -0.20483290       1.32132601      -1.15455893
Al       3.47618001       8.51439007       6.56203992       0.60568825       0.66653202       0.49358706
Al       7.64594995       8.66736005       8.94762992       0.44385314       0.10604995      -0.48796988
O        8.11795003       8.25059999      10.64870007       0.52534606       0.66045149       0.10868103
O        9.35641994       6.75234006      12.18230011       1.28656453       0.44443257      -0.40267579
O        9.46483995       3.34591005       1.19412001       0.19629691      -1.32146677       0.02284876
O       12.02170002      12.09199996      13.50780003      -0.88873074      -0.96023090      -1.09459779
O       11.84309995       3.87714996       7.46615992       0.43262078      -0.09348324       0.31283773
O       10.16780001       9.37773000      12.60670004      -1.28448537      -0.97199176       2.98146783
O       10.07989999       2.55448998       3.59748000       0.15883699       0.54784362      -0.05026652
O       12.19350001      10.23440002      11.51600005       1.12200992       0.02861091       0.47573956
O        5.13514995       9.39778001      12.25640008       0.77979290       0.84429410      -0.59653819
O       10.38039996       4.51804005      10.45099985      -0.16790079       0.63151842      -0.34492975
O        5.62402005       7.01421998      11.21369987       0.47253937       2.27944298       0.97427002
O        6.61173002       5.16620998       6.85335988      -0.87108369      -0.78062194      -0.48208650
O       12.56769996       4.69195994       4.85498015       0.17137723       0.12611132       0.39366315