180
Lattice="12.72844833 0.0 0.0 0.0 12.72844833 0.0 0.0 0.0 32.72844833" Properties=species:S:1:pos:R:3:forces:R:3 step=0 confid=0 wdir=cand0 selection=->scf energy=-1295.47434089 free_energy=-1295.50479951 stress="0.017396296256078785 0.0023400145660145686 -0.0018420912162145566 0.0023400145660145686 0.017765687983755156 0.0023482338595862255 -0.0018420912162145566 0.0023482338595862255 0.015804010913201813" pbc="T T T"
Al       0.28827199       5.37274996      12.61370010       0.01786473      -0.41181647      -0.23103873
Al       5.91800002      10.49949999       8.82238984      -1.17225088       0.20408097      -1.64538989
Al       5.96655995      11.55300006       1.50397988       0.66948343      -0.84426708       0.56312097
Al       4.78368004       0.89363495       8.41355000      -0.28072076      -0.48520483      -0.08480899
Al       8.86380006       6.47382998       7.31094003      -1.15664952      -0.01595950      -0.92308045
Al      11.74029994       9.63166000       6.28960003       1.96043596       0.07035861      -1.80363981
Al       9.70220997       1.18279997       8.03061995       0.56993158       0.49125356       0.24502250
Al       5.65237004       4.08028995       7.53175003       2.41432011      -1.26812929       0.96692614
Al       6.75494005       6.06932002       5.09824000      -1.33411881      -0.12772781      -0.75520429
Al      10.83680005       2.97460006      13.36680003      -0.22616243       0.37709552      -0.23187237
Al       7.37702005       6.78977998      12.00520003      -0.66402474       0.27927203      -0.44038577
Al       9.35569999       6.23719998       2.66977997      -0.79066900       0.07563054      -0.46367378
Al       0.16131297       5.24872001       6.99445004       0.64119376       0.05704870      -0.07052592
Al       6.49497002      12.31970005       4.64765993      -0.77191444      -0.13378966      -2.42092284
Al       1.95532998       7.74338998       9.55893016      -0.41595012      -0.47834579      -1.74867865
Al       1.90569005       5.62038001       3.24055004      -0.91282081       0.79199237       0.19697453
Al       9.91687996       1.83461006       4.97415009       1.18271003       0.14227349      -0.39210400
Al       9.71234003       3.03902994      10.73639991       0.95358160      -0.23280464      -0.52432586
Al       4.57394003       1.96459998       5.60830010      -0.40204623      -0.37558511      -0.56532407
Al      11.33610004       7.58409001       8.74338010       1.90294826      -0.25648582      -0.13450082
Al       0.19618497       2.44411996      11.12399997      -0.56586736       0.33218601      -0.29924056
Al      10.93959997      10.89579998      11.01600002      -0.06127528       0.92902875      -1.27573943
Al      12.44560006       8.21063999      11.68350000       1.40486695      -0.73060085       0.21897648
Al       5.18492006       5.28982004      10.84610010      -0.29180550       1.54706841      -1.47046838
O        9.29984004      11.65439997      11.06000015      -0.25359943      -0.38382231       0.49002863
O        3.58045002       0.56910305       6.30329001       1.55142924      -0.14647066      -0.16749461
O        8.16731999       9.37016994       3.78394014      -0.48803814      -0.06562419       0.23165928
O        7.91658000      10.08450001       8.62384009      -0.31688994      -0.69063446       0.35886885
O        1.80702001       8.94080005       8.21259994      -0.51311939      -0.00929679       1.28985975
O        7.10271995       9.95907999       1.50341008      -0.24290677      -0.06291102      -0.59276424
O        1.55364000       4.59152998      13.73590001      -0.39853785       0.44564072       0.04971174
O        2.69848998       3.24266004       9.17622986      -0.59275572      -0.23493141       0.84125404
O        4.52131006      10.74139995       1.91031993      -0.49965415       0.45379928       0.35374969
O        2.74921005      11.97270002      11.99250008      -0.96129004      -0.05956139      -0.00682077
O        8.27682003       0.66146895       9.11201992       0.53726945      -0.31305194      -0.33191218
O        7.12979005      11.99330000       2.92779011      -1.24258987       0.91613055       1.68086333
O        9.45862998       4.79556001       7.46175010       0.06406779       0.79403286       0.15413042
O       12.16349997       2.12658998      14.23060000      -0.81130187      -1.10627490       0.41760010
O        7.63260004      11.66139998       5.72194997       0.20715565      -0.27568633       0.22619524
O        4.17495995      10.45350002       9.68183988      -0.55750055       0.77443818       1.12711937
O        5.41695000       5.61132995       3.87605010       0.83319921       0.12328636       0.54151933
O        3.46976000       7.30192004      13.51880010      -0.03578056      -0.33701483       0.13503934
O       11.96499994       8.86412006       7.78428994      -0.74245900      -0.90493115       0.67182293
O       11.60540002       2.48619995       5.34660016       0.28724587       0.15478397      -0.59140131
O       10.16649998       2.70493999       9.07340002      -0.83437789      -0.71658378       0.57076762
O       11.29340004       6.86140003      12.09079997      -0.03154913      -0.42847818      -0.42107173
O        6.82696996       5.11535998      11.62719987      -0.49621151      -0.11115348      -0.11852422
O       11.48139999       0.91091204       7.68229009      -0.69689425       1.14747675       0.01169372
O        5.94212998       8.68556997       9.40334991       0.80096133       0.07579083       0.09193143
O       10.03660006       0.22229204      13.56979986       0.91195370       0.54137410       0.81587617
O        6.90616000       0.05147117      12.52810015       0.06667435      -0.17572694      -0.14920297
O        5.90249003       1.21135001       4.79432985       0.17580534      -0.05048958       0.26696865
O        5.15548005       2.97473995       2.15350015       0.72256116      -0.66466965      -0.48805328
O        4.13946005       1.23033996      12.81720003       0.44524827       0.30537311      -0.13284092
O       11.82019997       5.94308003       8.55301999      -0.04014240      -0.15483150      -0.19177245
O        7.98460006       2.66654005      10.94380008      -0.05594200      -0.35564212      -0.56312613
O        6.57959002      11.35370005      10.30200012       0.64350263      -0.02928933       1.24146098
O        0.97799300       6.99148999      12.38999985       0.77441146      -0.07998001       0.45417497
O        6.91007005       4.65055002       6.13307001       0.12502665      -0.40151730       1.20627812
O        3.02383994       4.88106005       2.22803985       0.54260794      -0.08729705       0.06279479
Al       3.18381999       5.29565998      13.31269990      -1.57350246       1.64708414      -1.33489654
Al       3.55391999      11.22970001       3.27893003       0.07135152      -0.26014441      -0.82718334
Al      10.78689995      12.66410004       3.14409014      -0.76275352      -0.59165520      -0.28084923
Al       9.28054003       8.37156004       4.67294985       0.14692443      -0.58208469      -1.07908821
Al       5.08100005       7.86253004      13.01469985       0.86832177       0.88372613      -0.27123352
Al       7.95731001       9.00910994      13.74039984       0.34469978      -0.35458741       0.54539076
Al      10.87360003       4.38283002       8.68417008      -0.66444179       0.07568663      -0.64501345
Al       0.18274297       3.32859998       4.24959985      -0.37933995      -1.11568970       0.00998488
Al       2.74485004       4.49900002       5.85625999       0.57571610       0.68892495      -1.09357981
Al       7.46951998       3.66792997      12.29649991       0.05642762      -1.42636163       0.81175285
Al       0.52881000      11.00200004       3.89750000       1.02648659      -0.13403582       1.07427152
Al       5.61985000       7.85011000       7.57864990      -0.25934163       0.60711132      -0.52666660
Al       0.35987206      10.05330003       8.77061999       0.62249582      -0.55862827      -0.49440999
Al      11.48820003      11.96710001       7.83864011      -0.46769886       0.03089140       1.01365002
Al       1.99969995      12.57349996       6.41208985      -0.18367141      -0.65079276      -0.20936347
Al       1.10718000       2.82017000      14.10290014       1.25624382       0.61394788      -0.72779403
Al       4.55232000      11.47170002       6.42860004      -1.22576386      -0.40999851       0.14630025
Al       4.31854995       2.75136001      13.79909995       0.07639323       0.82922889       0.39625357
Al       6.76831001       8.55457998       2.61877007       0.37166230      -0.15602556       0.36166742
Al       6.32036995       1.83279002       1.72072992       0.64359803      -0.70734161      -0.80721626
Al       8.27838996      10.72919999       2.61282003       1.87519642       0.06512479       0.27796680
Al       2.24020003       4.42239003      10.36859989       0.38457107       0.11602786      -1.47267530
Al       3.15955002       9.18309001       7.10353003       0.53200251      -0.63862455      -0.91241555
Al       7.99265004       8.31195997       9.17380010      -0.73489692       1.13072349       0.09751569
O        8.34100005       8.01319006      11.01039986      -0.69890788       0.51155282      -0.83778293
O        8.92749996       6.42150995      12.71089999       0.20387792      -1.04158006       0.26874482
O       10.17149997       1.61312004       3.13554016       0.18806689       0.88451563       0.20983862
O       11.96749994      11.71549996      12.14290006       0.42995712       0.70234232       0.63362178
O       12.29620003       3.68272005       7.82380005      -0.24124635       0.29961906      -0.05781372
O        9.59559000       8.75568997      13.71259997       0.49087378      -0.05587158      -0.63819302
O        8.90932005       3.39988998       4.64931991       0.10124420      -0.48975485       0.48534364
O       11.03880002       9.19223005      11.42299988      -1.65101557       0.91441101      -0.34408348
O        5.09616994       9.58215996      12.26049992       0.60030115       0.29693503       0.17980961
O       10.27540000       4.74699996      10.57019994      -0.41292040      -0.30555297       0.56667950
O        5.45197004       7.08743003      11.45089990       0.11536938      -0.43617701       0.30222144
O        7.27301005       7.14234005       7.99725984       0.47502772      -0.03600389       0.31260071
O        0.16973106       4.92105996       3.50012001       0.10189275       0.41342687      -0.49325075
O        3.55810001       4.87537998      11.51549996       0.70560079      -0.46910091       2.18910805
O        1.02545000      12.41769994       4.99426990      -0.49929042      -0.11479174      -0.43906143
O       11.11119994       2.34428997      11.71289996       1.26932481      -0.29669584       0.08390181
O        6.11214997       2.71837003      12.94500004      -0.52968631       0.05100291       0.20665258
O        1.28152003       1.30392999       7.25591009       0.10962131      -0.71861525      -0.25495721
O        9.95780994      11.22520000       2.58665986      -0.59904647       0.38498622      -0.07980924
O        9.72448997      11.79520003       7.60416009      -0.28350854       0.76254540       0.24787086
O        2.42029001       6.00659995       9.64184997      -0.72285561       0.93739328      -0.04982495
O        7.62489996      10.61669998      13.27489985       0.07836726       0.87475105      -0.29779396
O        2.65702999       2.08558999      14.63939992       0.27327578      -0.01553119      -0.74040586
O        9.15265998       3.57150994      12.88719996       1.29292924       0.87482955       0.88702257
O        2.81511999      10.94159999       6.80107989      -0.22480866       1.17278198       0.07382106
O       12.70869187      11.00950002       7.12448998       0.23668960       0.06867609      -0.45078524
O        0.53032698       1.41496000       9.82932016       0.23295446       0.23290828       0.79103756
O        0.73290800       2.26902004       3.01312005      -0.08975644      -0.40615534       0.90144590
O        7.27303003       3.26581996       8.19721004      -0.40732024       0.10742490       0.02682761
O        3.22735001       0.38436401       9.15313994      -0.51461158       0.03359946       0.76526907
O       11.56640006       4.64374004      13.43070003      -0.92872539      -0.04337870      -1.11378835
O        8.53226001       6.94430003       5.53044011      -0.39399023      -0.18185827       0.70366030
O       10.10539999       9.68497998       5.65846987      -0.53958484       0.40610819       0.19463963
O        9.61030994       4.63176003       2.19511994       0.61522657       1.79496985      -0.07573104
O        3.91148005       7.53011999       8.01597986      -0.40938739      -0.64427460       0.45184685
O        2.64508001      12.67000006       2.97990002       1.69022167      -0.26878346      -0.35999496
Al       6.36329995      11.05340006      12.06190010      -0.50739515      -0.58751893      -1.02891576
Al       2.24158005       8.27884004      12.58270004      -0.78869985      -1.06270048      -0.91719310
Al       1.02807003      11.25450000      12.20689989      -0.58117054       0.21280201      -1.15495878
Al       2.38854004       0.74665600      13.08279990       0.48242307      -0.15333574      -0.16972927
Al       8.71436006      12.20199996      12.78149984      -1.03583598      -0.69703968      -1.25456164
Al       1.70164004       8.68015999       4.30207009      -1.26111869      -0.19330814      -0.26419231
Al      12.18740005       6.45480006       4.06981986      -0.31981150       0.39802042       0.94619678
Al       1.93450000       1.67154998       8.83666992       0.18110035       0.53105075       0.51219412
Al       2.90840997      11.65000000      10.20739985       0.55846510      -0.15812823      -1.58898604
Al       9.31142001      11.45979994       5.81815001      -0.16280303      -0.03406964       0.04233168
Al       1.19121997       0.65029503       3.30946993      -0.74545916       0.95091738       0.10414478
Al      10.22720004       5.36973000      12.26610009       0.48502568      -0.13711147      -0.07784013
Al      11.86410001       0.24829804      13.52039987      -0.01464100      -0.38857036      -0.96638831
Al       7.22313999       2.04186000       9.44542004      -0.00257406       0.56462503      -0.56596120
Al       4.59606004       8.94401003      10.54310013       0.11728093      -0.31040798      -0.36628070
Al       3.45671003       5.72079996       8.17221991      -0.24677005       0.61556359      -1.31191685
Al       8.33831995      11.61410004       9.39315009      -0.01705308       0.23477423       0.26493253
Al       4.34413999       7.24001994       4.55482994       0.64739813      -0.76001944      -0.08861051
Al       9.85414004       7.99625003      12.07339989      -0.51327291       0.05402945       1.69856676
Al       5.71450994       1.24056001      11.92759989       0.09912397       0.65370852      -0.35428387
Al       4.46364001       4.20102997       3.04546001      -1.09450232       1.18364069       1.52112034
Al       9.12789004       3.15535994       2.84257996      -1.04191305      -2.30183919      -0.50858393
Al       8.33662999       3.60064001       6.52437985       0.36439782      -0.41123147      -0.47486358
Al      12.48169998       2.18169003       6.85792004       0.52343886       0.68938337      -0.04667923
O       11.57970001      11.12060003       9.38689994      -0.31706837      -0.88955109       1.07374756
O        5.64420003       7.20941006       5.91271002      -0.25550126       0.14205936      -0.14238686
O        2.97622994       8.24777002      10.92820007       0.17775028       0.97553159       1.03124000
O        0.03823371       9.47238995       4.79886012      -0.17782495       0.56703932       0.67711908
O        3.05871996       8.52655002       5.35346986       0.71225935      -0.52190942       0.86789451
O        0.68148405       4.26331001      11.16109996      -1.19823251       0.13019071       0.62992646
O        5.59788999      12.14389994       7.78057984      -0.13312586      -0.43455911       1.08680767
O        5.62252004       1.50468996      10.12520006       0.48760649      -0.23934560      -0.06850467
O        5.00161004       2.30874005       7.43298997       0.41025771       0.72804122      -0.48450973
O        5.22071004       8.23311003       3.33055000      -0.22847770      -0.23827507       0.27080781
O        6.80213001       7.69473001      13.62260001      -1.17684839       0.32059553      -0.25040580
O        0.95630105       7.28285003       3.51864988       0.36274038      -0.06134157      -0.94734035
O       12.54059998      12.20210001       2.87917986      -1.33587930       0.58624345      -0.56279261
O        0.16441604       8.14881003       9.96183012       0.06399056      -0.24705866       0.27842027
O       10.29690001      12.69750000       4.94787013      -0.19457879      -0.91040965       0.84920600
O        4.76349005      11.28069998       4.69846004       1.18184654       0.82483712      -0.04714496
O        9.60501999       7.63280000       8.54616010      -0.12880110      -0.15523760       0.18472723
O        1.36070002       2.12401998      12.43670007       0.06523525      -0.65459107       0.17661597
O        3.83755997       3.38310001       4.74551995      -0.05827712      -0.90169250       0.37689139
O        4.23922003       4.69846995       6.88959987      -2.61663827       1.50090479      -0.41334031
O       10.52450006       7.14135003       3.66981997      -0.01231768       0.44816632      -0.05052937
O        1.28808995      11.01560000      10.03470001       0.21568640      -0.37219240       1.21202223
O        2.83344997       5.96848996       4.71974990       0.88406741       0.01365004      -0.05129399
O        4.36820999       4.53152006      14.13120010       1.53566107      -2.63766600       1.10073529
O        1.11859004       3.63093995       5.74452016       0.28108570       0.45535861       0.09803413
O       12.13889995       6.30694004       5.80033984      -0.26854192      -0.23981211       0.50951320
O        7.97789000       2.27134998       1.84618002      -0.51530635       0.76330648       0.48623931
O        1.88417006       5.63032004       7.18202987       0.44712118      -0.64430719       0.33661595
O        5.11842003       5.18450995       9.06322999       0.22738917      -0.43679451       1.59701921
O        4.96808000       9.69022003       7.18685011       1.34765659       0.04888526       0.60462210
O        0.87096202       9.49287995      12.53110004       1.23867645      -0.55240536       0.41925479
O        7.96200999       7.22398006       2.49957993       0.05608167      -1.01545709       0.04540024
O        0.92244198      12.48460003      13.65149989      -0.00469904       0.18609581       0.60219577
O        6.05411996       0.36016494       0.76313414      -0.23868545       0.94581931       0.18067044
O        2.01218006      10.14710004       3.39080994       0.52087447       0.08717758      -0.03132388
O        9.12234005       1.92804006       6.60383994      -0.69429696       0.40947865      -0.14323184
180
Lattice="12.72844833 0.0 0.0 0.0 12.72844833 0.0 0.0 0.0 32.72844833" Properties=species:S:1:pos:R:3:forces:R:3 step=0 confid=1 wdir=cand1 selection=->scf energy=-1296.29403167 free_energy=-1296.32157763 stress="0.01917432759358362 0.0043580457605938375 0.0002432694216979552 0.0043580457605938375 0.021482571941921078 0.0004329930864011769 0.0002432694216979552 0.0004329930864011769 0.013517254370611274" pbc="T T T"
Al       0.35600999       5.27500005      12.74040011      -0.08182848      -0.35496786      -0.47787512
Al       5.81363006      10.51770002       8.79152005       0.48855334       0.06925809      -0.78433753
Al       6.14165999      11.28020001       1.50180998      -0.54738578      -0.36410610       0.54383474
Al       4.88057001       0.86691501       8.35204997      -0.23257157      -0.12201035      -1.45632793
Al       8.72119002       6.73475999       7.50096991       0.38823697       1.13017933      -0.42234991
Al      12.02190005       9.99500998       6.40028012      -1.09332010       0.65592196      -2.39579795
Al       9.73730994       1.34019996       7.70740001       0.22701454       0.18854284       0.30553697
Al       5.74901994       3.68777006       6.99986005       0.49842407       1.16437264      -0.90949651
Al       6.59607005       5.74342006       4.59156991      -2.12144388       0.50383425      -0.69102748
Al      10.93190002       2.93736999      13.07590009       1.88908105       0.28973799      -0.15926724
Al       7.25855995       6.53891995      11.56460016      -0.10326535      -0.39097949      -0.05643035
Al       9.26886002       5.69140997       3.39022999       0.38355178       0.18533411      -0.72151420
Al       0.22700004       5.59182004       7.20076985      -0.34529535      -0.47204429      -1.04278217
Al       6.54529003      12.09459999       4.50688996       0.41936471       0.38178313       0.11582606
Al       1.67785999       7.76729999       9.78725985      -0.26437128      -2.15557377       0.30133261
Al       1.83275006       5.82973995       3.13540990      -0.35379008      -0.73816152      -0.67289056
Al      10.41550000       1.60826999       4.98697997       0.19127240       0.70736732      -0.84637252
Al       9.76378002       2.91085001      10.73920015       0.56975906       0.75502270      -1.21475324
Al       4.45956003       1.62533999       5.26595988      -0.51631416      -0.85880559      -0.23213340
Al      11.36810000       7.79220002       8.75822016      -0.76124983       0.17403635      -0.13315478
Al       0.45620401       2.49193997      10.84529989      -0.82390796      -0.81413927      -0.27904388
Al      10.97609994      11.20479999      11.14490003      -1.14233621      -0.39696472      -1.85524721
Al      12.25330006       8.29313001      11.94600015      -0.42293873       0.43442238      -0.53398881
Al       4.88470001       5.38887003      11.04480007      -1.02591221      -0.36957021      -0.88679931
O        9.19211995      11.79819999      11.02440010       1.18399727       0.18818987       0.36706264
O        3.52050005       0.27922601       6.11748014       0.62431172      -0.94961484       0.16098853
O        8.33570998       9.07082000       3.76428998       0.05230943       0.58876833      -0.69110199
O        7.81584998      10.24220001       8.57367000       0.08747954      -0.44933392       0.74298126
O        1.82575004       8.87809004       8.55987005       0.23867985       1.75541292      -2.01813933
O        7.17471002       9.56230994       1.47347991       0.70604109       0.11476588       0.49702490
O        1.49087997       4.59078995      13.95270013       0.20849447      -0.39816430       0.10993983
O        1.99024997       2.88543995       9.83755005       0.16984629       0.85820489       0.23613565
O        4.59377999      10.54889999       1.82820000       0.54070325       0.79349080      -0.12531011
O        2.84069004      11.87670003      11.92930014      -0.30630131       0.39961880       0.83324457
O        8.28175001       0.71795895       8.72403006      -0.17760810      -0.20610663       0.48441240
O        7.18573006      11.50740001       2.98623985      -0.44153111       0.84094977       0.87098616
O        9.38242998       5.10876996       7.43304987      -0.12772306      -0.96379225       0.11044518
O       12.19650000       2.11178997      13.99839984       0.82554645      -0.45773038       1.18388134
O        7.83300997      12.01270006       5.73506000      -0.37981902      -0.42377811      -0.46775293
O        4.02645994      10.40759996       9.62751000       0.68519547       0.22190003       0.33600440
O        5.01983998       5.36391998       3.81248000       1.95369675      -0.02055706      -0.28465051
O        3.43909996       7.28834006      13.74129988      -1.11005053       0.18918660      -0.66550864
O       12.06689996       9.08243000       7.79290996       0.04431222      -0.85219833       1.91270102
O       11.78279997       2.68195000       5.01145987       0.42576406      -0.13780862       1.79264363
O       10.08590001       2.66502994       8.99159985      -0.74478775       0.48892789      -0.05733425
O       10.85130005       7.06986999      12.13379992      -0.42086444       1.11958817      -0.01885388
O        6.58072998       4.92674996      11.00779991      -0.35252913       0.37861400       0.50500399
O       11.50300004       1.23462003       7.20844991       0.45101077       0.79935525      -0.27890235
O        5.88496996       8.85753996       9.62844996       1.34380656      -0.45673436       0.57854805
O       10.12769998       0.32208002      13.44480010      -0.20082458      -0.16840759       0.43909781
O        6.81186995       0.05323228      12.33610002       1.27213576       0.35464921       0.85208595
O        5.77891003       0.99619799       4.24744009      -0.25584342      -0.49723876      -0.40043439
O        4.87968003       2.79415000       1.98844012       0.08436130      -0.67581025      -0.81454698
O        4.26916001       1.31520002      12.37579996      -0.28404260       0.95612175       0.85888698
O       11.75190001       6.14376006       8.47452997      -0.20482796      -0.19498321       0.50966465
O        7.95910994       2.65655000      10.78869997       0.49341520      -0.12717352       0.67119986
O        6.60015003      11.49109996      10.24519990      -1.03603674      -0.39831046       0.02843812
O        0.73652199       6.99696997      12.64259998      -0.37237508      -0.70440113      -0.15444794
O        6.90594005       4.36774006       5.68899013      -0.90663198       0.32136781       0.84567329
O        2.77911999       4.80245005       2.12135002      -0.23940274       0.33597373       0.38110058
Al       3.13725003       5.39091994      13.62750012       0.55512553      -0.27445962       0.55435683
Al       3.75867999      11.14370000       3.18866988      -0.61448271      -0.96497848       0.35434070
Al      10.91320002      12.58310001       2.98940992      -1.51272290      -1.03657116      -0.76892641
Al       9.54773994       8.36199002       4.81223002       0.68664505       0.75239346      -0.59750686
Al       5.02926998       8.05355999      13.26960013       0.05404168       0.54053783       0.55872060
Al       7.57156000       9.21476004      14.09419994      -0.26400032      -0.36886524       0.55653198
Al      10.65760005       4.52209999       8.63158986       1.19947510      -0.25122315      -0.86871651
Al       0.34118402       3.42583005       4.07327991      -0.14454027       0.74170006       0.00186036
Al       2.91872994       4.45350002       5.71509990      -0.57053495      -0.36807224      -1.56160714
Al       7.61144994       3.80788995      12.27950010      -0.05138462       0.14308505      -1.70813878
Al       0.75650998      11.06179994       3.83096994       0.33091579      -0.52487650       0.03992063
Al       5.62867005       7.81786999       7.30217011       0.77921376      -1.97874095       0.28923908
Al       0.38435701      10.18569995       8.92119998      -0.01475475      -0.27730760      -0.07102914
Al      11.87510006      12.60820001       8.27647998       0.13826078      -0.24887873       0.78630770
Al       1.83274000      12.26500005       6.50608006       0.55436089       1.66006047      -0.69682313
Al       1.34299997       2.73994004      13.88290016      -0.61489033       0.02554522      -0.58910969
Al       4.46929997      11.26350003       6.47022997       0.14082825       0.84700550      -2.50185279
Al       4.50866002       2.79735998      13.63719985       0.03650222      -0.03104998      -0.13026818
Al       6.88038998       8.31108998       2.80881009      -0.97246343      -0.57733442       0.81853191
Al       6.02453001       1.61376996       2.31909007       0.84739386      -1.07403413      -0.14966206
Al       8.46657994      10.41509994       2.58594016       0.27979067      -0.09264608      -0.60062633
Al       2.25755998       4.57894995      10.41269984       0.21415603      -0.57501722      -0.20570993
Al       3.15882997       8.93095994       7.29232998       0.20002311       0.02313624      -0.78395824
Al       7.80563999       8.55009994       9.32914012       0.26688382       0.28930391      -1.23173291
O        8.13683994       8.07052994      11.09499995       0.19999733      -0.71241226       1.01059976
O        8.36789997       5.54026996      12.53739994       0.66642839       0.53330484       0.38884905
O       10.29950005       1.64660999       3.13962008      -0.86471186       0.32796430      -0.05089095
O       12.12529999      11.96949996      12.13650001       0.26587556      -0.03639416       0.18839722
O       12.28289994       3.91655997       7.73357001      -0.24348876      -0.12300564      -0.58645664
O        8.95477003       8.30201994      13.95330004       1.07805596      -0.19577574      -0.77524189
O        9.12647005       4.22437000       4.51633015       0.81773147       0.78253991      -1.25046218
O       10.76739997       9.55540005      11.79330001       0.49922724      -0.66405122       0.50459110
O        5.17569996       9.67677000      12.26399990      -0.38237771      -0.02455562      -0.23452832
O       10.07879995       4.81105002      10.44600006       0.16899368      -1.06408109      -0.25128196
O        5.50656999       6.99579004      11.94000005       0.17551568      -0.60543363      -0.77174706
O        7.13125001       7.20801999       8.23638992      -0.02920400       0.38736898      -0.10479528
O        0.09083224       5.07271001       3.46210003       0.63873847       0.48899738       0.23547837