180
Lattice="12.71102621 0.0 0.0 0.0 12.71102621 0.0 0.0 0.0 32.71102621" Properties=species:S:1:pos:R:3:forces:R:3 step=0 confid=0 wdir=cand0 selection=->scf energy=-1301.23662098 free_energy=-1301.23662098 stress="0.02090065426948964 -0.0004987337036543531 -0.002198968568297311 -0.0004987337036543531 0.015526701786210462 0.00013811889845796458 -0.002198968568297311 0.00013811889845796458 0.017744909063648725" pbc="T T T"
Al       0.60303396       5.58965001      12.98270013      -0.39951990      -0.76778014      -0.36800998
Al       4.19311002      10.88340003       7.89979984      -0.06245066      -0.17343903      -0.01364112
Al       5.58329996      11.34929995       2.51491987      -0.99316914       0.29038728       0.54260426
Al       4.85478999       0.86449304       8.88752989       1.01445245       1.00079988       1.70398449
Al       8.21269000       6.10845003       7.68247007       0.32103282      -1.09027818      -1.51044803
Al      11.78260002       8.54557996       6.02330009      -0.10953785      -0.88346481       0.78743002
Al       9.83216003       0.82311305       7.86385010       0.19452166      -0.53701435      -1.41652445
Al       5.50927997       3.72726006       8.06333993       0.76166908       0.32053800      -0.30858852
Al       6.34485999       5.73992001       5.71703984       0.09988289      -0.40682227      -0.99719303
Al      11.10400002       3.67439999      13.62819989      -0.71212327      -0.67651268       0.73168841
Al       8.15203998       7.28795001      12.17209996      -1.25610339       1.39356231       0.14802592
Al       8.76551999       6.30199002       3.99466987      -0.21975461      -0.26727896       0.85148253
Al       0.04387376       5.31444002       7.14684992      -0.96555999      -0.83542113      -0.70269518
Al       7.14006001      12.64310001       4.93610988      -0.21031282       0.86917386       1.04517755
Al       2.52352003       7.99002994       9.28939008       0.68868956      -0.90971311      -0.31753537
Al       2.18048998       5.00937005       3.25990989      -1.12126029       0.11720740       0.48253330
Al       9.94690997       2.80613000       4.95118999       1.20519796      -0.57355189       0.27512831
Al      10.25639994       2.15767001      10.79009999       0.91431261      -0.08210136       1.11645568
Al       4.68292001       1.73031997       5.81056001       1.37200083      -0.22641812      -0.83316391
Al      11.06899996       7.13735002       9.04118012       0.93525205      -0.07655943      -0.06048654
Al       0.49110804       2.62269006      11.60820014      -0.08963783       0.96251627       0.34825905
Al      12.08030001      11.64889998      10.54630014      -0.40290227      -0.02533745       0.63229490
Al      12.67039999       8.49297995      11.44790009       0.59181092      -0.15210460      -0.63937478
Al       5.59219997       5.18697003      11.09519999      -0.51953930       1.30306425       0.62404705
O       10.77010005       0.15887906      10.91490008       0.59013759       0.26369868       1.14501181
O        3.62733004       0.29805895       5.55481997      -0.98988409       0.25193568       0.52905390
O        9.82497996       9.93574994       2.88231016      -0.17954555      -0.84843401       0.65444995
O        8.32216994       9.95504998       8.10619006      -0.37877580      -0.35055958       1.09995648
O        2.11403000       9.09896999       7.76561005      -0.55107128      -0.16289153       0.69950731
O        6.52211004       9.97219995       2.11430008      -0.02796522      -1.31712674       0.12852497
O        1.91184003       5.06242994      14.01750003       0.16610620      -0.22708126       0.84661705
O        2.65331995       3.83526997       9.34001006       0.30950314       0.40792628      -0.44786979
O        3.76273997      11.08480002       3.07987004       1.26277205       0.25153861      -0.97403803
O        1.15419003      11.88280002      10.82340015      -0.24725089       0.12602417       0.27523584
O        8.30446005       0.15698804       8.76620992       0.05389460       0.93140569       1.08836160
O        8.46850996      12.53620003       3.67011008       0.15606298      -0.33004511      -0.39263911
O        9.24205001       4.58066997       7.92104009      -0.86225468       0.43908584       0.09962766
O       12.48960001       3.34495002      14.53939987       0.63901250      -0.63796020       1.04227743
O        7.51121995      11.58459998       6.35852989       1.43921251      -0.90565128       0.39408957
O        3.77599998      10.94709994       9.81670000      -0.40735101       0.40152255       0.46085597
O        5.96952996       4.65748995       4.37307004      -0.67198823      -0.48158087       0.01508574
O        3.85918005       7.37228995      13.42100007       0.12703784       0.89920049      -0.61463798
O       11.95490001       8.22879004       7.93453012      -1.39696913      -0.66944124      -0.30032130
O       11.80710001       2.08046006       5.21938999      -0.79277543       0.19220355       0.85640304
O        9.85026003       2.24129000       9.07871995       0.10238648      -0.01974066       0.46844038
O       11.29779995       7.24913003      10.97069986       0.18991816      -0.62542453      -1.35724868
O        6.57775002       4.23438997      12.19659987      -0.86734486      -0.00333076      -0.24524577
O       11.77139995       0.72932297       7.91592998      -1.92613574       0.80832222       1.28596298
O        4.91121004       9.30691005       8.49991993       1.17905459      -0.31384535      -0.63271192
O        9.61400005       0.29496902      13.75299998       1.16635599       0.17664020      -0.81730137
O        6.74627001      12.38289997      12.74040007       0.36047580      -0.13581199       0.81109636
O        6.36648005       1.55207998       5.36693994       0.56502143      -1.08093886      -0.46053099
O        6.04945002       2.88641996       2.57516998       1.07732272      -0.33357694       0.02102621
O        4.54137994       1.88725004      12.81660008       1.79928348       0.84390980      -0.18337772
O       11.63870002       5.58901001       8.50717000       0.16881620       1.31578648       1.45199469
O        8.47100996       2.26425005      11.29629985       0.55335955      -0.25492976      -0.61829756
O        6.58038997      10.68150000      10.03089997      -0.09329853      -0.11088996       0.91132455
O        1.04439994       7.19215997      12.32819992       0.10052462       0.46253325       0.17336442
O        6.75070005       4.82863998       7.21051997       0.94825723       0.50603117      -0.10507622
O        3.39765006       4.33509002       2.20606988      -0.06929454      -0.03799778       1.03615041
Al       3.52121001       5.58712000      13.53389989       0.73785898      -0.92782853      -0.50867981
Al       2.11309994      10.74429997       2.87909008       0.37973163      -0.73135307      -0.77697442
Al       9.09923006       0.98183004       2.23667006       1.31827472       1.23029946       1.97284341
Al       9.62737002       8.66729998       4.04377010       1.14175053       1.46749429      -1.90837498
Al       5.51049006       8.01843997      12.75249988       0.51806338      -1.29692376       0.36574949
Al       8.29316999       9.23666994      14.12909991       0.55696729      -1.11984532      -1.49687853
Al      10.69169996       3.96313006       8.80140012       0.80349907       1.16634522      -1.86591567
Al      12.54849998       3.01873005       3.90078006       0.44430524      -1.12851134      -0.49263611
Al       2.91902997       4.26061002       5.73521016       0.11920200      -0.62875833      -0.74446798
Al       8.05506997       3.34575005      12.71170007       1.64474824       1.09762101      -0.45101081
Al       0.24135900      11.04979995       4.75615999      -1.08438655       0.21349122       0.53355985
Al       5.32303000       7.72508004       7.80342989      -0.49527782      -0.56404149      -1.24660839
Al       0.39399796       9.43444003       8.38690987      -0.19193490       2.07122084      -0.67005259
Al      11.97130003      11.80400005       7.26576006      -0.57818290      -0.13247978      -0.17773471
Al       2.07878004       0.25331995       6.48024009       0.33834100       0.40672313       0.48860685
Al       1.48437000       3.10823995      14.50189995       0.29177643       0.13258288      -0.75271143
Al       4.04346006      11.45339995       4.78342005       1.07321432       0.23843917      -0.03690928
Al       5.52700003       3.46670004      13.50179991      -0.87880392      -1.57373890      -0.47707737
Al       6.60125004       8.33965002       2.76651999      -0.51561129       1.90010935       0.71784118
Al       6.51153002       1.47058006       1.62009012      -1.23384716       0.46493234      -0.02517714
Al       9.96878996      11.53629999       3.35499986       0.14339470       0.39567736      -0.50787846
Al       2.32047003       4.95299004      10.64150002      -1.48169225      -0.17871572       0.63604705
Al       2.54791999       9.48674997       6.09479985      -1.04963724       0.60758107      -0.28278418
Al       8.19643006       8.44361999       9.02680002       0.25514642       0.98360709       0.62725832
O        8.54539005       8.53414003      10.76730008      -0.05784854       0.19223944      -0.36225942
O        8.88188003       5.83340999      11.85310007       0.88787182      -1.26096536      -0.42180440
O        9.14241005       2.37667997       3.42607994      -0.67633987      -0.38551276      -1.12079840
O       12.50490001      12.02469994      13.05689986      -0.82650689       0.54650088      -0.70204052
O       11.98959997       3.62156000       7.44486994       0.54555918      -1.55688791       0.07173235
O        9.53577004       8.38244004      13.06430007      -0.11382615       0.32480269       0.91911293
O        8.46884998       3.79305005       5.29268984      -0.18435467       0.83316836      -0.95359193
O       11.43900001       9.85947005      11.21169998       0.11522922       1.33357256       0.36463278
O        5.39673997       9.65471004      12.07059994       0.84324696       0.52089086      -0.02826768
O       10.79289994       4.10529005      10.62499992      -0.66226212      -0.36105297      -0.18886321
O        6.27557994       6.82441994      11.62110006      -0.47975073       0.52465843       0.00343997
O        6.96224000       7.36085003       8.43393001      -0.81778940      -0.45898668      -0.72056125
O       11.21149997       4.26784005       4.05299003       0.64205152       0.83012145      -0.02763842
O        3.72158001       5.08903005      11.66750000       1.09747428       1.02592817       1.88715092
O        0.41661494      12.60136018       6.06595985       1.04061338      -0.50277333      -0.41378507
O       11.47339998       2.24443001      12.27330003      -0.37773541      -0.45490456       0.52668753
O        6.90844999       2.30981006      13.50090003      -0.06011950      -1.09991328       1.32398089
O        1.67932994       1.90528000       7.33823984      -0.32458004      -0.83205206      -0.50288380
O        8.15732001      10.61980004      15.06210016      -0.13611483       1.75648202      -0.76443285
O       10.14769995      11.88670002       6.97597995       1.14108650      -0.47890572       0.58888843
O        1.96910994       6.27112003       9.49076013      -0.44503856      -0.82101800       0.78186022
O        8.40950003      10.53740005      12.39849984      -0.08982920       1.06374725       0.41126726
O        2.73876003       2.09596001      15.11349997      -0.03403602      -0.03821095      -0.97991336
O        9.38623003       3.79567004      13.70399984       0.35631368      -0.71963115      -0.41023048
O        2.06245006      10.89090005       4.93391007      -0.61672309      -0.72666510      -0.01322898
O       12.62120006      10.13039998       6.56758998      -0.15281176       1.11284546      -0.10490427
O        0.56828100       2.05040000      10.01160014       0.28453582      -0.21788980      -0.20822679
O        0.11642995       1.80421005       2.57597009      -0.55097172       0.94481061       1.40035612
O        7.08211998       2.66217000       8.29482997       0.45586056       0.49624942       0.24559213
O        3.28330002       1.04095004       9.74712986      -1.01376765      -0.70016000      -0.35553837
O       11.59890001       5.31188002      13.21999998      -0.90797529       1.70051350      -2.18950022
O        8.08583002       6.36672995       5.71324994      -0.04325023       0.35933192       1.53568704
O       10.04170003       9.23937001       5.67916014      -0.38939829       0.23904491       1.22792231
O        8.08584998       5.19414998       2.96037993       0.28153494      -0.83507540      -0.85396328
O        3.81267994       7.02115002       8.26108985      -0.36812839      -0.45184901       0.22350062
O        0.70677894      11.70249996       2.87138010       0.39090718      -0.43380190       0.69424683
Al       6.71351001      10.91619995      11.78319988       0.53979957      -1.06003007      -0.98064815
Al       2.56920003       8.19168999      12.42459997       0.21910901       1.54096306      -1.36265411
Al       1.44297006      11.53110003      12.58870007      -0.40411455      -1.15440683       0.96004562
Al       3.04031998       1.23964995      13.47959992      -0.74119610       1.37278026       1.77563021
Al       8.27987998      11.96280004      13.78749997       0.10388535      -1.31538922       0.42232880
Al       1.26811998       8.18976999       3.56428010      -0.57964168      -1.46913400      -0.41796377
Al      11.85209997       5.97772005       4.18131015       0.48733961      -0.50204297      -0.28925551
Al       2.03621996       2.23998000       9.09282003       0.03297676      -0.35628687      -0.39320629
Al       2.46891003      12.08250003       9.73517005       1.01887477       0.52756523      -1.09708860
Al       9.06939995      10.57740000       6.64513997      -0.53251017       0.31028628      -1.09592291
Al      12.22500004       0.20715604       2.79329004      -1.24674584       1.34331221      -0.00669272
Al      10.57150005       5.64878005      11.61069992       0.69318496      -0.26937069       0.75730741
Al      11.13060000       0.38676704      12.83170014      -0.29127193      -0.50237202      -0.22663980
Al       7.76823995       1.76239001       9.63864014      -0.69126502      -1.03470296      -0.63506324
Al       4.87616994       9.62195004      10.27519998      -0.79233577       0.65606495       0.23072148
Al       3.04179001       5.31538000       8.24019994       0.52935381       0.96310111      -1.42759677
Al       7.17709003      11.48850005       8.44814001       0.54426034       0.16058986      -1.05103491
Al       4.04910998       7.23951998       4.63967995       1.05637987      -0.43879684      -0.62883532
Al       9.78526995       9.53577004      11.66849998      -1.62129631      -1.51852811       0.99745446
Al       6.18909997       1.27027005      12.23559992      -1.77643193      -0.46820843      -0.67216115
Al       4.62552998       3.70267999       3.31980999       1.08261182       0.94657490       0.44707380
Al       7.55361999       3.66841005       3.67757016      -0.23276558       0.69191075      -0.10512450
Al       8.20201999       3.41196001       6.95866011      -0.59033084      -1.04890529       1.14464547
Al      12.54550005       1.92510996       6.96472997      -0.57794672       1.63578053      -2.05209132
O       12.32370001      11.07770002       8.91920986       0.26052065      -1.01822057      -1.22556381
O        5.28156994       7.22457995       6.00713005       0.30054205      -0.36278927       0.48057795
O        3.61757001       8.30808003      10.74820011      -0.97768908       0.15682430       0.83514902
O       12.62930003       8.84101001       4.49239005       0.12066863       1.08956936      -0.50435689
O        2.56707004       8.26261002       4.90307992       0.59062176      -1.63481310      -0.93493070
O        0.89089701       4.41814006      11.65160015       0.33565259       0.61847055      -1.21103067
O        5.49769005      12.14760006       8.15057009      -0.28517339      -0.95910431      -0.72673324
O        6.10522995       1.13768998      10.38829999       0.32033366       0.51569675      -0.15484405
O        4.70590002       2.02036004       7.58205998      -0.39987518       0.97162166       0.50556713
O        5.10408995       7.69668996       3.27169992      -0.58765083      -0.56068973       0.78908339
O        7.08819000       7.99977002      13.71080014      -0.47902204       0.45909195      -0.64316435
O        0.82701102       6.34658005       3.27437994      -0.15654446       0.43355217       0.17074546
O       10.59600004       0.04833139       1.99966003      -0.50803448      -0.58874523       1.03709690
O        0.87810299       8.78803999       9.94448987       1.00235779      -0.80531799       0.58006497
O       11.38069999      11.85020005       4.35712014       0.54874949       0.00845766      -0.64026311
O        5.76912004      11.77160002       4.29620011      -0.38580139      -0.61834155      -0.49074396
O        9.38565994       7.23338005       8.57538001       0.25111050      -0.17406140      -0.49030532
O        1.68203001       2.27065006      12.78990003       0.40760072      -0.76469094       0.54843346
O        3.84760997       2.89781997       4.77290999      -0.27274452       0.63561413       0.79957853
O        4.24669996       4.57898996       7.03982991      -1.27895550      -0.66997604       0.05617770
O       10.46270002       7.06517999       3.82428991      -0.80978087      -0.56134921       0.40345736
O        2.59925995      11.94189994       7.83743987       0.16348125      -0.51475304       0.97745506
O        3.22253000       5.59776002       4.62392992       0.97281346       1.72285834      -0.89812271
O        4.77142994       4.72002998      14.30839984      -0.15706751       0.36800247       0.37090492
O        1.31086996       3.85655001       4.45007997       0.60872632       0.55130931      -0.66718073
O       12.14790004       6.49975999       5.87225006       0.06674530       0.27842500       0.46890675
O        8.08412001       1.43050995       0.98656193      -0.91532366      -0.11158751      -0.46547357
O        1.79208996       5.08065997       6.84372011      -0.89139207       0.35698391       2.02115028
O        5.31218000       4.66358006       9.53422000      -0.00465356      -0.52218576      -0.63396045
O        4.12138005      10.21919998       6.11187010       1.03189020       0.91062913       1.66809073
O        1.65168994       9.70535001      12.51110003      -0.65922249      -0.43841895       0.10369371
O        8.07725999       7.95651999       3.68520001      -1.32202318      -0.01598218      -0.92962114
O        2.75661000      12.28339996      13.36199985       0.25291204      -0.29570273      -0.61115308
O        5.42513996       0.18586596       1.74136003       0.58140339      -0.37744905      -0.43137158
O        1.76444996       9.19704001       2.25738007      -0.13417823      -0.64162744       0.71240092
O        9.28761001       1.93125002       6.52823011       0.63949036      -0.01859367       0.56682458
180
Lattice="12.71102621 0.0 0.0 0.0 12.71102621 0.0 0.0 0.0 32.71102621" Properties=species:S:1:pos:R:3:forces:R:3 step=0 confid=1 wdir=cand1 selection=->scf energy=-1295.42431765 free_energy=-1295.42431765 stress="0.013011622214029503 -0.00011494845050731128 -0.0003686333156609746 -0.00011494845050731128 0.008476457372857453 0.0012909408133587965 -0.0003686333156609746 0.0012909408133587965 0.011154647058247726" pbc="T T T"
Al       0.60253404       5.80639004      12.99039998      -1.04226522       0.21977984      -0.25049840
Al       3.98873998      10.90379996       7.89532007      -0.90305346      -0.07669051      -0.19266171
Al       5.36774994      11.39809999       2.38495013       1.81289437       0.39084384       1.10205043
Al       4.78752998       1.00950996       9.17871003      -1.41494907       0.78158187       0.05222699
Al       8.35397001       5.96221997       7.48455986       1.25670144       0.57417748       0.73499710
Al      11.81390003       7.67220001       5.72053992      -0.30343432       0.35436083      -0.16513922
Al       9.58303993       0.71945603       8.05424004       0.73185206      -0.82912924       0.40645233
Al       5.61925996       3.87448006       8.19756995       0.17047620      -1.21687778      -0.99325390
Al       6.60095997       5.67632001       5.58618985      -0.44357056      -0.07724211      -1.24350286
Al      11.21109995       3.65683996      13.87300005       1.72393187      -0.53363061       0.47747877
Al       7.99774998       7.00518001      12.22439999      -0.93499188       2.24692595      -0.11739559
Al       9.18294005       6.32988996       4.16561998      -0.72703022      -1.90329230      -3.63056843
Al       0.03960514       4.89816001       6.92027994       0.62913807       2.18093029       0.46718968
Al       7.08344002      12.27110001       5.32700010      -0.75500903       1.21859028      -2.50235883
Al       2.43115002       8.00700005       8.99696986      -1.07918326      -0.03714105       0.70950941
Al       2.92445999       4.94765001       3.16034014       0.25445949       0.86319153       0.21375700
Al       9.18873005       1.75063994       4.96492993      -0.11478491      -1.27097676       0.40153613
Al      10.43089996       2.03774999      10.62550007      -0.18698500       0.57587956       3.45267065
Al       4.81915005       1.69163002       5.94379987       0.63869915      -0.53552569       1.01674575
Al      11.23220000       6.97847999       8.94751994      -0.45404044      -0.49297021      -2.20166794
Al       0.68897995       3.00627998      11.70860010      -2.23728087      -0.68907457      -0.48804408
Al      11.98470000      11.51179999      11.02080007       0.92887895       0.20746813      -0.74982077
Al      12.43539994       8.19448006      11.19100012      -1.87087483       2.35815990      -2.67415936
Al       5.46669994       5.43487000      11.13430013       0.33055754      -2.44759238       1.17011918
O       10.59060002       0.21584403      11.14760011       2.25822005      -0.17655960      -0.32646608
O        3.59639001       0.36161904       5.69805011      -0.13266065       0.39032186       0.32076632
O        9.50005003       9.99218003       3.09318997       0.22505812       0.62086402       0.94617081
O        7.99734997       9.85798998       8.66309005       0.56655441       0.27571540      -0.61759451
O        1.86409996       8.91315004       7.50969011      -0.87196792      -0.05882598       0.17504230
O        6.33930998       9.97445006       2.12925000       0.15656112      -0.16722812      -0.76423958
O        1.81765997       5.35696005      14.15089985       1.07844266      -0.43405148      -0.19851680
O        2.87288996       3.77428006       9.54164999      -0.02509220       0.64354100      -1.03252232
O        3.69227995      11.15429997       3.09040004       0.49903951       1.02745348      -0.68376183
O        1.09934996      11.85090005      10.92920004      -1.38132080      -0.24676757       1.74944393
O        8.09626997       0.12535106       9.24510000       0.02721450       1.37587599      -1.25013426
O        8.62749998      12.56085522       4.42048990       0.32517925       1.64158284       0.26718531
O        9.39424001       4.46588000       7.63856010      -0.78600172       0.42137981       0.13218383
O       12.59969999       3.73729999      15.01080011      -1.45339860      -0.68399392      -0.85772347
O        7.32452001      11.37879995       6.73677010       0.32332932      -0.59411634       2.12427930
O        3.33178000      10.76139999       9.56712010       0.90871760       0.36668407       1.31307696
O        6.46181999       4.55523000       4.22105012       0.45500874       2.64154694       1.03416297
O        3.66143004       7.40434996      13.11930006       0.17174176       0.90678206      -0.42087059
O       11.85290000       8.04625005       7.64003013       0.24801807       0.54479943      -1.50152633
O       11.01529994       2.03404002       4.92268986       1.07291956       0.21174348       0.81883946
O       10.19469998       2.14266998       8.96374003      -0.47891292      -0.34619581      -0.83357289
O       11.18180002       6.94308995      10.70659987       0.56973046       0.21685977       1.14020332
O        6.42015999       4.35666000      12.31389997       0.76347024       0.20188340      -1.20659100
O       11.35749996       0.72570795       7.33586993       2.22787566       1.18661325      -0.46315222
O        5.07729002       9.38754994       8.46725012       0.37225992       0.16506490      -0.18776993
O        9.66215997       0.31551703      13.75030001       0.82958394       0.22481182       0.40900568
O        6.74219994      12.40370004      12.99770010      -0.64736482       0.11106039      -1.36355846
O        6.43196001       1.14283998       5.64629995      -0.20686539       0.36356329      -0.39362635
O        6.69475006       2.80916005       2.71299004      -0.73309493      -0.21112531      -0.25062726
O        4.55277995       2.14589998      13.09449987       0.63010812      -0.16349469       0.17485243
O       11.83200002       5.43516998       8.36428006      -0.19367136      -0.10617202       0.51099614
O        8.61111000       2.24873002      11.29550007      -1.13103912      -0.40056658      -0.88883952
O        6.20082004      10.96470001      10.23859994      -0.03257443       0.27649337      -1.64217363
O        0.78273406       7.48329001      12.24069989       2.21803354      -1.90731389       2.15242054
O        6.88235006       4.69795995       7.03600991      -0.10216576       0.29778915       0.44749118
O        4.13950000       3.98897005       2.27714996      -2.17679852       1.11670777       0.03388997
Al       3.45517000       5.58381997      13.47439984       0.96077174       0.60305180       1.32028662
Al       1.94725994      10.96440003       2.84669995       0.16560981       0.55618415       1.61097597
Al       9.84429995       1.50949004       1.55859993      -0.91785759      -0.80444719       0.73387692
Al       9.34908002       8.81463997       4.36620988      -0.39744943       3.38466666      -0.02178929
Al       5.32928001       8.02543002      12.67399996       0.81702244       0.71704976       1.56719810
Al       8.27554997       9.25665002      14.11590003      -0.72936114      -0.52518301       0.02688479
Al      10.81870002       3.88636004       8.50967010       0.00068799      -0.81499954       1.42564189
Al      11.01100005       3.07420999       3.52128996      -0.31270659      -1.01445878      -1.52550091
Al       3.16090999       4.31398997       5.69977987      -0.45479140       0.87912042       1.01507330
Al       8.09595003       3.29776999      12.67680002       1.71318180       1.49889216       0.07981429
Al       0.09648114      11.56990006       5.07084006       0.59148486      -0.29365142      -1.91820641
Al       5.40475999       7.82936003       7.79037001      -0.07458320      -1.08980978      -2.14870598
Al       0.22424805       9.45618999       8.13026996      -0.58806982       0.48933919      -0.02839066
Al      11.69020001      11.79389999       7.59632984      -0.78795663      -1.68031355       0.28341497
Al       2.00381994       0.53373396       6.71159013       2.92258918      -2.61377278       0.16477624
Al       1.52132006       3.41419003      14.57229997      -3.84443366       3.79611337      -1.45500081
Al       4.07737994      11.53229996       4.84490009      -0.16681724      -1.27721351       0.61385919
Al       5.55733998       3.61209003      13.65170015      -0.53165645      -0.38876311       0.14474150
Al       6.78586002       8.38878004       2.58266015      -0.96282340       0.72644515       0.82330866
Al       6.86479995       1.54755003       1.60392989      -0.07508133      -1.05501549      -0.54430567
Al       9.79748995      11.66720004       3.35455990      -0.17980928      -0.57889674      -0.25201423
Al       2.44495000       5.05830000      10.58469994      -1.34187191      -0.55635322       0.43701570
Al       2.13458005       9.20050999       5.77437998       0.79968869       1.65321808      -0.78633321
Al       8.14368006       8.15773998       9.15519015       1.20004534       1.62352069      -0.86542073
O        8.34986002       8.27130004      10.84250011       1.36528973       0.26606840       2.81108618
O        8.83245002       5.52587002      11.92800015      -1.68870124       0.95821393       0.50677199
O        9.38172995       2.46925997       3.09099015      -0.97428908      -1.03026522      -0.79322077
O       12.39149999      11.89679994      12.87050000      -0.34799865       0.50288066       0.46673531
O       12.11100006       3.35040000       7.18215002      -0.90665026      -1.34900085      -0.42388489
O        9.52866000       8.28669004      13.24990015      -0.37748163       0.56323021      -0.13012878
O        8.53206000       3.40454999       5.08559993      -0.41885482      -0.73974252       2.32507016
O       11.38409994       9.74765001      11.37140012      -1.26043690      -0.65228961       0.27014279
O        5.33586000       9.66940005      12.02740012      -0.64793679      -0.80125609       0.28951503
O       10.62629995       3.86756005      10.55030004       1.06436921       2.27221357      -0.33685462
O        6.12164001       6.99851003      11.51180009       0.48070419      -0.53637814      -0.05165423
O        7.02734995       7.23716997       8.22630004      -0.66936423      -1.25311106      -0.30620473
O       11.63989994       4.57395995       3.47079984       1.43082886       1.28454435      -0.11872496