180
Lattice="12.72745021 0.0 0.0 0.0 12.72745021 0.0 0.0 0.0 32.72745021" Properties=species:S:1:pos:R:3:forces:R:3 step=0 confid=0 wdir=cand0 selection=->scf energy=-1293.50738914 free_energy=-1293.50738914 stress="0.020680061398883696 -0.003482836104058073 0.0017562433900670735 -0.003482836104058073 0.017255044650567906 -0.0013812772207941583 0.0017562433900670735 -0.0013812772207941583 0.019761064104275312" pbc="T T T"
Al       0.36667097       5.52601006      13.05900013       0.77501366       0.41633654      -0.55578705
Al       5.77264004      11.05429999       8.80046994      -1.01786075       0.36995304      -0.79732101
Al       5.10543999      11.68810003       2.96663012       1.49422569      -1.23105134      -0.80819408
Al       4.41447003       2.24628996       9.29617005       2.93253373       1.63082500       1.06281853
Al       8.50561001       6.50383995       7.25463989       2.46538817       0.79607125       0.36013629
Al      10.98200005       7.59042997       4.83309003      -1.25661879      -2.14518816       0.38371846
Al       9.89792001       1.25791003       7.84294002       0.78563140      -1.42109842      -0.00736392
Al       5.92906003       3.86619006       7.86308999       1.04678715       1.33405837       2.96317492
Al       5.22666005       4.99734996       5.62185005      -0.99712804       3.23323623      -0.05523074
Al      11.03350002       3.48370002      13.38290010      -0.08750975      -2.21611149       1.62747509
Al       7.72694995       7.26961003      11.88329986      -0.51530207      -1.61017909      -0.35957058
Al       8.96001995       7.39918998       2.36293009       0.61928419      -1.96081584       0.74336266
Al       0.00014980       5.22989995       6.50568004       0.35999468       1.84394482      -0.29917955
Al       6.91412000      12.19289997       5.60253006      -1.09601358      -1.52587972      -0.60223962
Al       2.24549997       7.91599001       9.40721985       0.19421216       1.74295130      -0.40987806
Al       2.13605001       4.82761999       3.28261987       1.06291604       0.22576209       1.25507411
Al       9.72568006       2.10941005       4.67603001       0.53170075       0.47562059       0.25449185
Al      10.00350006       3.02484005      10.63409996       2.02201091      -0.07204828       0.07299597
Al       4.98089006       1.60536000       6.06242993      -1.23471229      -0.65656453       0.56319681
Al      11.10339994       7.29780006       8.78843999      -0.45968126      -0.18101770       1.06361198
Al       0.33635494       2.66202996      11.16579993       0.13447621       0.77991658       0.54437077
Al      11.14659997      11.00920001      11.15600003       2.59211898      -0.12798563       1.03481207
Al      12.61310527       8.34382999      11.73590001      -0.25797236      -0.97508454       0.14059823
Al       5.75697001       5.35718005      11.00560005      -0.61032303       1.18739943       0.34075126
O        9.71776002      11.78439999      10.77169991      -2.93752810       0.39416549       0.00904900
O        3.68898997       0.28029995       6.26894996       2.21742314       0.94699212      -0.35424385
O        8.29292006       8.77180005       3.57953999      -0.18295276      -0.28168630      -0.57813188
O        8.72541995       9.96912996       8.27481997       0.68017714       0.04035451      -0.65703845
O        1.65882000       9.08990994       8.07490008      -1.21534080       0.89996107       0.09371538
O        6.35923995      10.16930005       2.34660007      -0.26883200       0.01204597       1.48279743
O        2.10252005       6.54487999      12.83219988      -0.39347345       0.07355216       0.43812840
O        3.05297001       3.41256999       9.47197013      -0.65833136       0.37086753      -0.26121637
O        3.48689002      11.39190006       2.53627986      -1.52654938      -0.15311491       1.08312822
O        1.99045001      11.60399996      11.06559994       0.24173777       0.97911950      -1.48816932
O        8.26555999       0.71846304       8.71899987       0.48992990       0.95957335       0.23723906
O        8.33357001      11.38910002       4.92929008      -0.47622186       0.03656510       0.59350027
O        9.35909997       4.94257000       7.24584013       0.17448272       0.32956964      -0.87386293
O        0.81212205       4.43137005      14.36029984      -0.42961101      -0.53062953      -0.79788485
O        6.88860006       9.11073001       5.69821007       0.30361243      -0.65114035       0.00323647
O        4.18194003      11.19760000       9.52172993       0.70097634       0.03976830      -1.12129848
O        5.86801001       5.05283006       4.00169988       0.03718750      -0.33799461      -0.50394394
O        4.21858999       7.86759006      13.54270006      -0.76143273      -0.61579531      -0.08458200
O       11.47989994       8.86194005       8.10176015      -0.47071951       1.07299842       0.35007132
O       11.53149995       2.29127997       4.54522985      -0.79388611      -0.11834335       1.68805845
O       10.29139995       2.53460005       8.97497009       0.48198183       0.66329356       0.31949980
O       11.67660001       7.03028000      10.56040003      -0.88309264      -0.00533316      -1.13635633
O        7.41754996       5.29741004      11.78559991      -1.15291145      -1.66073444       0.15920934
O       11.62859996       1.01593995       7.18101000       1.18757346      -0.06996034       0.80850140
O        5.94665000       9.19198002       8.97827000       0.16935719       0.03992341      -0.31844756
O        9.90093005       0.27796802      13.34720002       0.24220761       0.34215543       0.68011775
O        7.22628006       0.48215005      12.23189990       0.47130904      -1.11999230       0.44789403
O        6.54596997       1.23007001       5.23410013       0.06862083      -0.85470034       0.89715257
O        6.58014000       2.99058005       3.08874999      -1.31073324      -1.08146274      -1.69058034
O        4.15436995       1.53889001      12.40260006      -0.27846024      -0.51013177       0.96295454
O       11.77259999       5.98703000       7.80230988      -0.53751276       0.84080965       1.46298160
O        8.39841001       2.62911995      11.02609987      -1.34303281       0.82983573       1.71188991
O        7.15247994      11.26969999       9.84346007       0.46272090       0.08944265       1.75372486
O       12.22219996       7.20454998      13.10749992      -0.31547983       0.71790166       0.37982359
O        6.70748997       4.57932004       6.48016998       1.09103260      -0.43554731      -1.12607710
O        3.43396000       3.99342002       2.47442007      -0.13008781      -0.36239288      -0.57034074
Al       3.68491999       5.96613000      13.53370001       0.36824607      -1.89700768      -0.22676967
Al       2.02636000      10.61180002       3.10754013       1.14762410      -0.17788408      -1.30074495
Al       9.35860996      11.99909998       3.58139008       0.66011607      -0.25267797      -0.07342432
Al       8.68727998       9.25282996       5.29316991      -2.72059589      -0.60606457       0.13329967
Al       5.72798006       8.85230995      13.64670004       1.16526322      -0.24491306       0.20264714
Al       8.15183004       9.20914006      14.41529996      -1.79224133       0.44107941      -1.09292945
Al      10.77209996       4.36187995       8.25175006       0.15003942      -0.30000069      -0.48996986
Al      12.66169995       2.74957000       3.29579006       0.71891321       1.08171515      -1.40123410
Al       2.68983002       3.94871001       5.89094987      -0.76132515      -0.85127871      -0.77439994
Al       7.73073000       3.61837006      12.51659991       2.40594649       1.46825651       1.04060002
Al      11.87569997      10.55369997       4.96256015       0.60913011      -0.04616108       0.50394745
Al       5.77275001       8.30008002       7.16856997      -1.61673326      -0.80368331      -2.42332123
Al       0.16444095       9.73052998       8.79920012       0.49585339      -1.22673231      -0.01712926
Al      12.28389997      12.27519999       8.08320991      -0.25835482       1.59632325      -1.70288594
Al       2.00167995      12.53069999       6.37618996       0.43129860       0.21249894       0.27286364
Al       1.15925002       2.70559004      14.18110003      -2.14959707       2.29642296      -0.00988584
Al       4.43141001      11.16849996       6.17162016      -1.09062339       1.38729612      -1.11227965
Al       4.41671999       3.03955006      13.70349984      -1.28232743       2.18924751       0.42430079
Al       6.29772997       9.01098995       3.84056988      -0.82827212       0.06693324       0.05997705
Al       7.12906003       1.38270994       3.43560009      -2.56321888      -0.05146222      -0.08714268
Al       8.07505997       9.89995996       1.86337011       0.30560810      -1.19204084      -0.73728845
Al       2.53495999       4.72441004      10.55120002       0.93332516       1.08446110       1.07129918
Al       2.72803999       9.05355996       6.64479004      -0.27341997       0.47478872       0.77887504
Al       7.87736996       8.50257999       8.99398997       1.85043774       0.27323258       1.30289666
O        8.15816996       8.72274998      10.86010002      -0.83507210       0.44113880      -1.69144096
O        9.39980999       6.85180004      12.35190000       2.38691877       0.58120575      -0.36098842
O       11.01660001      12.16400001       4.36905013       0.11563858      -0.47819515      -0.51225455
O       12.14999994      11.97979995      12.46520014       1.28095972      -1.85947032      -1.42217098
O       12.08059995       3.77400005       7.05590997      -0.47386798      -3.11530329      -0.28877465
O        9.76890006       8.63567997      14.60350014      -0.82228875       1.13721439       1.21868372
O        8.63327995       3.52264003       4.66436006      -0.78989034       0.84516280      -0.47305230
O       11.19460002       9.37973994      11.94980008      -0.38641451       0.49956986       0.48551049
O        5.74548005       9.66412006      11.97479992      -0.43119288       0.54152099      -0.63079584
O       10.33000001       4.68587005      10.04080005       0.20784340       0.45123244       0.81291281
O        6.00428002       7.16532996      11.03160004      -0.84125919       0.40988599      -0.68202930
O        7.07244999       7.28972996       7.92535985      -0.83033415       0.08715977      -1.13905982
O       12.13589996       4.17433003       2.40288016       0.62035168      -0.71893084       0.61867664
O        3.99096998       4.94856997      11.81179987       0.73704790       0.72326236      -0.21673683
O        0.84536195       0.71401301       5.46862995      -0.79356970       0.08360042      -1.27245028
O       11.24059995       2.29648995      11.93799987       0.98353844       0.50050630      -2.93930083
O        6.06996995       3.05607996      13.03180002       1.55942630      -1.01367889      -1.07581321
O        1.81574997       2.52971997       6.90113990       0.48032554       0.41826666       1.18545139
O        6.48770002       9.78842995      14.94029997       0.79246331      -0.94460964      -0.42896232
O       10.10159994      11.96969995       8.07434993       2.32693770       0.63644418      -1.72462317
O        2.25526001       6.13143005       9.42123996       0.40472072      -1.70744617       0.64565754
O        8.12930996      10.61990002      12.91719994       0.54999925      -0.52359476      -0.02895117
O        2.86692994       2.37319995      14.36920007      -0.39136251      -2.09426563       0.23605548
O        9.38767996       3.75016000      13.36450008      -4.14289516      -0.84371127      -0.63174047
O        2.44722000      10.89020001       6.05338014       1.31308817      -1.67805605      -0.46453130
O       12.20930006      10.92390001       6.82380984      -0.08702980       0.13920465       0.08681114
O        0.47437994       2.12796006       9.53188984      -1.36727338       0.00366606       1.83387740
O        0.17473605       1.17299999       2.62170014       0.61428712       0.92351957      -0.28403121
O        7.78471005       3.49026000       8.32019003      -2.29602979      -2.00291652       0.98612533
O        3.29442005       1.06222994       9.32579985      -2.22765763      -0.45020838      -0.46221129
O       11.39089994       4.92380006      12.60779986       2.01379817       1.68703688      -1.18453033
O        9.47073994       7.58616997       5.99874002      -0.56475167      -0.40538943      -0.98122580
O       10.28069998       9.84009004       5.59516998       1.03861527       0.54090429       0.01561797
O        8.46670003       5.76859997       2.90873985      -1.23888833      -0.52176565      -0.23393101
O        3.51794004       7.72222998       7.97690002       0.15112180      -2.64489196       0.29825340
O        0.52544998      11.18090006       3.86463012       0.20200397       0.55356358       0.37245408
Al       7.36292998      10.24419995      11.35840000      -0.29389677      -0.53451303       0.62615469
Al       2.70950997       8.23164006      12.55469990       0.44310550      -0.44551240      -0.81918816
Al       1.17328000      11.11699999      12.51459994       0.66390832       1.12180153       0.23238763
Al       2.59811996       0.86994795      13.16399993       1.13527065       0.44027587      -0.91490506
Al       8.64363004      12.23869996      12.56270013       0.10918949       1.49934304      -0.19488818
Al       1.03893998       8.02627005       3.72504002       1.99719252       0.60428588       0.14623636
Al      11.95410004       5.60733999       3.29748992      -0.00869541       1.63420256      -1.13309555
Al       1.90606994       2.14178996       8.70345989       0.94794666       0.15897102      -1.91801121
Al       2.73496003      12.22710003       9.52970004      -0.99073561      -3.61905058       1.83469350
Al      10.45319995      10.29560001       7.35951009      -0.17113410      -0.91273686       0.78042541
Al      12.68920002       0.21193699       3.98620016      -0.90143655      -1.61685500       0.15534569
Al      10.54570000       5.94921000      11.31680014       0.27959180      -0.81716705       1.01415061
Al      11.52209997       0.74334902      13.10749992      -0.86590371       0.83648738       0.69530587
Al       7.57445995       2.21535004       9.58092014      -1.07691904      -1.96186801      -2.76917737
Al       5.06427000       8.80433001      10.55629994       0.47657234      -1.84934501       0.24572553
Al       3.22045995       5.84876000       7.88444007      -1.54261014       2.52378850      -0.48070429
Al       8.78190004      11.73470006       9.12841994      -1.57232339      -0.36342513       1.57810125
Al       3.90410997       7.24343997       4.72322005      -0.29998905      -1.60833442       0.93550285
Al      10.58809998       8.03266000      13.30179985      -0.01950535      -0.96334809      -2.01093798
Al       5.85787998       1.39683002      11.93799987      -0.38889354       0.36205423       0.13754533
Al       4.86384995       3.65728996       3.38648993      -0.76495510       0.29850367      -0.43136209
Al       7.46327002       4.39148006       3.50735011       2.89758961       3.59816118       0.41033305
Al       8.37169000       3.61762003       6.54084994      -0.49598442       0.91033666       0.33216931
Al       0.03674975       2.24767000       6.17611004      -1.01717355      -0.68057515       1.49890578
O       12.22540003      11.24480001       9.54500013      -0.52750726      -0.90846859       0.90708404
O        5.06518002       6.84877994       6.02747014       0.27211358      -0.04012186       0.60935215
O        3.37818004       8.37900001      10.78309986      -0.75529212      -0.03819631       0.90634531
O       12.35709999       8.66309006       4.63751995       0.00450290       0.85759622       0.32077602
O        2.43729997       8.17515997       5.11557014      -1.08004174      -0.53781213      -0.06293759
O        1.02832999       4.38626002      11.37300004      -0.76788818      -0.72259269       0.43651589
O        5.93763998      11.74589996       7.06727000       0.85788530      -0.13237539       2.21261007
O        5.84863005       1.62317003      10.15960004       1.06013421       1.35490663       1.16189564
O        5.43030994       2.10394005       7.82140994      -1.14165069       1.32705999      -2.39500121
O        4.80785006       8.07772001       3.62977990       2.38181789       1.70697331      -1.22326122
O        7.29740996       7.83130995      13.45139997      -1.33245882       1.50758525       1.19298331
O        1.10293996       6.32625995       3.23048996      -1.15485872      -1.10667145      -0.25481624
O       12.01600000       2.10824002      14.25940013       0.87157695       0.30913659       0.17159814
O        0.60762795       8.70944000      10.24890016       2.40804656       0.36954107      -2.23412005
O        9.11327996      11.26240003       2.04470996       0.09277437      -0.17715849       0.71998616
O        5.47091000      11.37509995       4.71164992      -0.33129063      -0.13646222      -0.37963939
O        9.27172997       7.26431999       8.80232984       1.12619750      -0.45732666      -0.25486464
O        1.20938001       1.88419998      12.50809994       0.17429542      -0.54639178      -0.06584803
O        4.24769003       3.01041998       5.10178010       1.05187682      -0.23173542       0.61977698
O        4.26524997       4.63720003       7.22033988      -0.00744386      -1.53289979      -1.20732276
O       10.78380005       7.10230999       3.01393013       0.10459240      -0.14600037       1.12482484
O        1.46244996      12.54179998       8.09199985      -0.47844818      -0.08432164       0.88899876
O        3.38013001       5.36164000       4.64453999       0.11772863       0.96647141       0.55753846
O        4.15844006       4.62605002      14.64769987       0.24060184       0.72350718      -2.35425477
O        1.35357006       3.63668002       4.53911014      -0.99436408      -0.23253630      -1.27240823
O       11.81020006       5.74550003       5.03331002       0.00392204       1.61198527       0.81946547
O        8.77105995       0.96864703       3.56506988       2.47646336       1.01357150       0.79345847
O        1.78276004       5.28289005       6.69776989       0.17381310       0.82839539       1.33729122
O        5.47734996       4.60862003       9.49037998       0.35503197      -1.39234520      -1.08250537
O        4.45036004       9.50352000       6.66967992       0.89791820       0.04300716       0.12548284
O        1.30720994       9.24398005      12.71209996      -0.44227687       1.47746753       0.07888396
O        8.61244003       8.35715003       0.96677804      -0.54897679       1.47555734       1.40812143
O        1.98843996      12.12050000      13.74639997      -0.10292605      -0.34404371      -0.05014665
O        6.02658004       0.36724981       2.67165009      -0.14828436      -0.19669748      -0.49389000
O        1.73900994       9.03167995       2.50308997      -0.62411872       0.20177762       0.89167281
O        9.41362996       2.18628996       6.44196984      -0.37538983      -1.35282960      -0.42846500
180
Lattice="12.72745021 0.0 0.0 0.0 12.72745021 0.0 0.0 0.0 32.72745021" Properties=species:S:1:pos:R:3:forces:R:3 step=0 confid=1 wdir=cand1 selection=->scf energy=-1290.7265655 free_energy=-1290.7265655 stress="0.01564905017617893 0.0003709043948620824 -0.004140666243580229 0.0003709043948620824 0.01287350315953381 -0.0003409215519118378 -0.004140666243580229 -0.0003409215519118378 0.015495418069203673" pbc="T T T"
Al       0.36154206       5.49898001      13.25189997       0.71754378       1.22537339      -0.37945243
Al       5.94486001      11.15809998       8.91559988       0.39791746      -1.16659609       0.66976353
Al       5.43414994      11.47659997       2.76854985       2.57873280       3.08280408      -0.03331862
Al       4.83717004       0.99113300       8.95722003       0.76409916       1.94269754       0.10538840
Al       8.64759006       6.64052997       7.36855007       1.02812042      -0.99836771      -1.67194683
Al      10.88029996       7.49530998       4.85511004      -1.14817422       0.44179735       1.24304928
Al      10.05970003       1.10119999       7.90415999      -2.30447807       2.18836788      -1.03286361
Al       5.71918997       3.85376998       8.10844015       0.97925181      -2.56053853      -3.10914927
Al       5.26518999       5.30197003       5.88579988      -0.60175639      -0.50594549      -2.25687387
Al      10.77220000       3.09035002      13.35339991       1.32995243       0.53968988      -0.28440356
Al       7.61400999       6.97254994      11.84380012       0.21140904       0.23939301      -0.44265071
Al       8.82309995       7.18722995       2.50134004       0.24572502       0.64106377      -0.64644261
Al      12.72009998       5.35918997       6.65017010      -1.23537031      -0.21898167      -0.90588628
Al       6.91862997      12.11869996       5.57709003       0.12828638       0.10114137      -1.05848393
Al       2.20839003       8.24490996       9.71461014       0.61912837      -1.64091409      -1.56978829
Al       2.33888000       4.92650006       3.10050012      -2.27982406       1.27151881       2.23936696
Al       9.72279004       2.23180994       4.92884989      -1.76530829      -0.48239095      -2.31584027
Al      10.06720006       3.11407004      10.59200002      -2.80658256      -0.17255426      -1.98691647
Al       4.97811000       1.77524996       5.77263000      -1.64856048      -0.93562191       1.76739123
Al      10.97139999       7.41410006       8.87713989       4.49473704      -1.03699919      -0.04045552
Al       0.44080404       2.83566000      11.16700005      -0.06168581      -0.65340816      -1.41997878
Al      11.45999994      11.21609999      11.11190011       0.34419629      -1.90242141       0.38219037
Al      12.52810003       8.19223002      11.40570000      -0.20087506      -0.99125638       1.02251361
Al       5.51648000       5.16210006      11.03019996      -0.66206536       1.44820084      -0.25133442
O        9.94098003      12.06449998      10.82580002       2.25659906      -0.68426813       3.13279325
O        3.82725997       0.41470895       6.18430990       0.50607611      -1.74995009      -0.56163115
O        8.30225005       8.55204000       3.61175002      -0.42265120       0.51533184      -0.48674180
O        8.94984002      10.04679999       8.30276986       0.43858593       0.83899362       0.70297017
O        1.82584004       9.22058000       8.18623003       1.65934987       1.15106307      -2.87992860
O        6.50053005      10.17760000       2.38553003      -0.29426636      -2.15595490       0.09643010
O        1.94123003       6.54516000      13.50860002       0.65738147      -0.58691324       0.14486632
O        2.52491001       4.49195004       9.08637008      -1.63873409      -1.88513102       2.55594540
O        3.79332999      11.37979994       2.65815002      -3.09068897      -0.00472317      -0.51529005
O        2.25580004      11.81080003      10.96910010      -0.87089407       0.31935257       0.85248974
O        8.50447001       0.47852005       8.97531995      -0.06475348       2.41439766      -1.20243831
O        8.40442996      11.40339995       5.06489987       0.12776888       0.39655758      -0.79325087
O        9.09526998       4.83954001       7.22712003       0.84777802       1.96687366       1.09093903
O        0.81578094       4.35014995      14.44799992       0.08015927      -2.28125754       0.48883439
O        6.91189002       8.97095003       5.46956988      -1.20948586       0.22401787       2.45688444
O        4.31577006      11.98140004       9.22035004       2.16224121      -0.12072063      -1.23123126
O        6.01306005       5.00653994       4.25974012      -0.77308893       0.91008396       0.45401780
O        4.17314001       7.64294000      13.19640011       0.29668761       0.05797480       0.72656794
O       11.54990003       8.89259997       8.01375997      -1.00676613       0.36455322       0.33863307
O       11.44670000       2.50131001       4.71969989       0.57722468      -0.63490985       0.10185874
O       10.08130004       2.72986994       8.84313999       0.16377750      -1.60041526       0.23701259
O       11.54999994       6.97745001      10.48640000       0.39131748       0.29823554      -0.64829332
O        7.12519000       5.19447004      11.85830002       1.05058457      -1.84544152       1.69684419
O       11.77910002       1.25467001       7.21919999      -0.18627965      -2.05435094       0.90960960
O        5.87097996       9.34428000       9.04868998       0.31516933      -0.09743710      -1.44450513
O       10.09350006      12.56580001      14.14080010       0.12143314       0.07354493      -0.84210253
O        7.38880005       0.21759498      12.58870012      -0.81164994       0.59604564       0.42152488
O        6.40760006       1.15995996       5.04625995       1.01124419      -1.08015561      -0.21422521
O        6.54286002       3.12715004       2.77975998      -0.13730233      -0.80087462       0.68532055
O        4.29773004       1.42195999      12.38740012      -3.30963750      -0.43345834       1.94005877
O       11.65000002       6.07264005       7.82868002      -1.34002157       0.82502778       1.44643362
O        8.24304997       2.64496996      11.13110000       1.99830573      -0.08480360      -1.84784900
O        7.36010996      11.24639998      10.14919991      -0.98773866      -0.28571892      -0.56456147
O       12.08350003       7.22963005      12.81499997      -0.56719533      -1.01595749       2.07642362
O        6.64331995       4.59512995       6.56704009       0.13972865      -0.92114991       2.58943526
O        3.52779999       4.07782999       2.29078013       1.77028910      -0.10074785       0.09504652
Al       3.63826001       5.81279999      13.51990016      -2.20089155       2.16813925      -1.57077055
Al       2.31115999      10.63610003       3.07609985       0.23401126      -1.12166338       0.15673917
Al       9.41888996      12.08720003       3.54248008      -0.48316536       0.77398801       1.60238575
Al       8.66807998       9.23762002       5.23697000      -0.39241508       0.35811609       0.29972733
Al       5.48199001       8.85184998      13.43389994       0.70831639      -0.67915850       0.22830690
Al       7.80668997       9.26111998      14.35139994       2.17276840      -1.60330416      -1.39536842
Al      10.50209996       4.36853997       8.20760989       2.15661271       1.00170737       0.06682358
Al      12.33809994       2.97507000       3.23979012       1.70528339       0.95793083      -1.39721473
Al       2.67198995       3.90501998       5.59875004      -1.64518902       1.29583691       0.37861181
Al       7.75850003       3.53116997      12.60219987      -3.01828067       0.92787911      -1.20003384
Al      11.94439995      10.57729997       4.67581990       0.09030944      -0.71512991       1.67499572
Al       5.71306998       8.30337006       6.89490990       3.90560155      -0.70228836       0.03002584
Al       0.21045895       9.67866002       8.69295012       0.39246193       1.34901811      -1.64561533
Al      12.33460002      12.41610000       7.96274998       1.63926804      -0.73896136      -0.60447835
Al       2.12696006      12.61389997       6.19874009      -0.71077461       0.80387614       0.85608254
Al       1.04728995       2.63055001      14.18250011       0.36506653       2.45146867      -0.50212622
Al       4.52313000      11.24490005       6.10515005       0.37268371       0.87798376      -1.14750130
Al       4.28649997       2.97957004      13.68660004       0.79001481      -3.70135912      -1.64730454
Al       6.28219000       9.02871000       3.79648012      -0.58391648      -1.60995744       0.29953323
Al       7.07067998       1.48287001       3.31918004       0.51400449       0.44336170      -0.00133702
Al       8.14704999       9.67682994       1.86461997      -1.01998558       1.31023036       1.49254601
Al       2.18979994       5.31465000      10.65649994      -0.17943268       0.33114631       1.20623878
Al       2.77194002       9.33886001       6.53515995      -3.03323291      -1.29761373       2.29289933
Al       7.95367000       8.62810994       8.95738989       0.58173041      -0.43564353      -0.26041085
O        7.92747004       8.56405001      10.72729988       0.44319366      -0.90875684      -0.70638721
O        9.48286004       6.96552999      11.96820010      -1.24963936      -0.02407310       1.97471407
O       11.21680000      12.11310001       4.10322011      -0.73032828       1.18463106      -0.69931169
O       12.48520000      11.69120005      12.59749988      -0.54389809       1.28323726      -0.85321980
O       11.84879999       3.80178000       7.07312003       1.08914385      -0.18701247      -1.04611769
O        9.55205995       8.84264002      14.40789995       0.12203618      -1.02124611      -0.17163778
O        8.50841998       3.54882994       4.82754011      -0.02526903       0.72844784       0.10213082
O       11.21920001       9.49101006      11.88260015       0.33960950       0.38412043      -1.16057229
O        5.64342995       9.70098995      11.76380016       0.67877906      -0.26157190       1.51106181
O       10.26200005       4.82544996      10.15229986      -0.11159742      -1.14000793       0.47300577
O        6.01811005       6.90074001      10.69850005      -0.92408930       0.62796179       0.16858179
O        7.15014000       7.44954996       7.71789007      -1.03251126       1.30224836       0.50398914
O       11.63439999       4.28698005       2.34093004       0.66907946       0.61423631       1.49302222