180
Lattice="12.72037669 0.0 0.0 0.0 12.72037669 0.0 0.0 0.0 32.72037669" Properties=species:S:1:pos:R:3:forces:R:3 step=0 confid=0 wdir=cand0 selection=->scf energy=-1295.63202343 free_energy=-1295.63202343 stress="0.015690050243928763 -0.0012130453564036926 -2.33216173016822e-05 -0.0012130453564036926 0.010315340116339814 -0.00247912756835554 -2.33216173016822e-05 -0.00247912756835554 0.015966996121330495" pbc="T T T"
Al       0.73248801       5.06071002      13.19000005       0.49577881       2.62132662      -0.40790911
Al       5.72736996      10.90489998       8.39403995       1.59329038      -1.37077288       0.08056934
Al       5.41571004      11.75120000       2.76217011      -0.76164104       2.15399728      -0.00176676
Al       4.86148005       0.97377600       9.19244005      -0.59033331       0.72102235      -1.34323845
Al       8.22467998       6.26151002       7.65490006      -0.34204096       1.75005158       0.15344953
Al      11.73919997       8.04364001       5.96092002      -0.25703649      -1.01275590       1.21830936
Al      10.12860007       1.26508000       8.08620992      -2.42015199      -0.67697579      -0.75472608
Al       5.79216997       3.73099995       7.90572007      -0.15861956       1.20489061       1.13173355
Al       6.67061998       5.67800001       5.54746011       0.52082042      -0.65386263       0.88992502
Al      11.21809995       3.65404002      13.40000008      -0.40772811      -0.92745321      -0.31111867
Al       7.42576998       7.04514005      11.86310010      -1.19905933      -0.14845524      -0.46954194
Al       8.54720996       6.73388999       4.14067009       0.31682071      -0.05517747       0.05741950
Al       0.19082206       5.22067996       6.93091003      -1.08274314       1.64385262       0.05510127
Al       7.14929004      11.77660004       5.44054988      -1.16772286       0.19790280       0.11122060
Al       2.38394996       7.66486001       9.00799987      -1.15785748       0.02605060       2.47751339
Al       0.82987000       5.44421005       2.43484986      -1.78951843      -0.46177863       1.04006854
Al      10.25819997       1.88287995       4.80151012      -1.52225846       1.67554726       1.31541037
Al       9.99968999       3.03836997      10.95370005       1.17765642      -0.29868840       0.56347937
Al       5.13255001       1.48930005       5.94996001      -0.92641631       0.15399703      -1.18527951
Al      11.13029997       7.18396999       9.10936007      -0.36120228       0.44265466      -1.82759580
Al       0.60744594       2.48229997      11.43870013      -1.82482176      -1.15312827      -1.24836439
Al      11.32680002      10.88960004      11.09950009      -0.19024711       1.50146479      -0.74640770
Al      12.71990006       8.18723996      11.50450015       0.06588904      -0.77370804       0.37336996
Al       5.40522006       5.39254000      10.85110008      -0.06920715       0.21547135       0.97112104
O        9.68655998      11.60180006      10.84000002      -0.53860508      -0.25344504       0.27888957
O        3.84634006       0.17822329       5.97978986      -0.61490122      -1.49225704      -0.44194118
O       10.59300003      10.43460005       3.29849995      -1.26097748       1.33969605       0.15085658
O        9.14576003       9.91106000       8.34355012      -0.75747942       1.09191686       0.28950427
O        1.71683006       8.60596004       7.68082016       0.59491648       1.77691939      -1.61787168
O        6.27374995      10.54930007       2.00112000       0.23187793      -0.39548346      -2.23513821
O        2.11343004       5.19403000      14.25200008       1.52127003       0.31133559      -0.55046842
O        2.67274004       3.86667994       8.98181997       0.20644364      -1.45712804       0.37341496
O        3.61935002      11.51759995       3.25104984      -0.13239553      -0.14284739       0.29827931
O        2.19590998      11.35080006      10.63309991      -1.43716466      -1.13732397       2.75812920
O        8.60422002       0.58362996       9.09795996       0.62101226       0.62558436      -0.68592687
O        8.00978995      12.39140002       3.29013989       1.27933607      -0.28013031       1.13226695
O        9.43293004       4.91764001       7.52984998       0.01117823      -0.95739560      -0.03646865
O        0.17752329       3.63430003      14.24949991      -1.99223296      -0.15981299      -0.51516193
O        8.80346996      11.12860001       5.46314003      -0.23210354       0.78452522      -0.89285904
O        4.51058999      11.89280005       9.08313992       0.15961063       1.69501625      -0.57309212
O        7.02474000       5.64339995       3.73198015       0.89090758       1.27034804      -0.03893400
O        3.80685995       7.53183998      13.29589987       0.95528692       0.41785979       0.81521575
O       11.75670003       8.23897997       7.82275985      -0.28276524       1.15425841      -1.30488221
O       11.94889996       2.49830997       4.92411992       0.75713380       0.60440783       0.82096935
O       10.40869996       2.57757000       9.25157984      -0.20610428       0.73844164      -0.17181252
O       11.34999995       7.20572997      10.81279989       0.30384147       0.31946111       0.73375536
O        6.89402999       5.15496000      12.00839984       0.76166102      -0.49164247      -0.68838282
O       11.77989996       1.04774003       7.65280988       2.91520558      -0.45878867      -0.55793784
O        5.17865997       9.26212006       8.75026015      -0.62118296      -0.25546187       0.09365945
O       10.07349997      12.64661937      13.64989999      -1.76678514      -0.60126108      -1.17349395
O        7.07247004      12.10849999      12.25979998       0.43185792       0.70994441      -0.26276553
O        6.62317997       0.79264801       5.26892005      -0.08110784       0.41236860      -0.58233878
O        4.19522997       3.31833999       1.84939986      -2.16779840       1.92079353      -0.73417400
O        4.58382005       0.94287795      13.01770011      -0.24136636      -2.00019722      -2.47159746
O       11.85459999       5.83351005       8.34667001       0.40566107      -2.37605526      -0.19600790
O        8.29434999       2.57190994      11.14450010      -0.15149131      -0.96615705      -1.62409571
O        7.02322997      11.02030000       9.75808996       0.54810148      -0.33500681       0.09442744
O        1.03973001       6.90614997      12.46789994      -0.86817108      -0.62304208      -0.63483043
O        6.75745996       5.15496000       7.32563000       0.42225483       0.73426581       1.05032232
O        2.09216004       5.37407994       1.35542001      -0.87058677       0.78275020      -1.33143523
Al       3.68848005       5.52664000      13.53290011      -1.43280142       0.06111132      -1.07308930
Al       2.04775995      10.79229997       2.97294987       1.02106170       0.52036853      -0.09800921
Al       7.25507003       1.24864998       3.48730994       2.01432508       0.70850908       0.48214051
Al       9.83396002       9.08977002       4.03015996       0.63905317      -0.55029055      -0.26298859
Al       5.25360004       8.73522005      13.34160010      -0.15429747      -1.06563206       0.54041210
Al       7.50397994       9.01280004      14.53640003       0.80749095      -1.16823138      -1.62015932
Al      10.82760003       4.28328996       8.42384985       0.14036372       0.11918991       1.56090297
Al       0.26682326       3.04292005       3.53059016      -0.01173857      -0.67710635      -0.21587571
Al       3.26301996       4.21239001       5.11940003       0.18353921       0.41917813       0.83846861
Al       7.66873006       3.49862004      12.48079995       0.18222656       1.96145200       0.76723971
Al       0.49888402      10.84569998       5.30554986      -0.12465608      -1.56212211      -0.26782282
Al       5.26458001       7.80262004       7.37833991       1.14630578       0.99936397       0.07674185
Al       0.20862194       9.44249004       8.42186994       0.45283421      -0.61741959       0.58564797
Al      12.34300000      12.10579996       8.00307988      -0.18728380      -0.46485303       0.21177610
Al       2.11810999       0.40016397       6.52167006       0.98701865      -0.78207675       0.21501133
Al       1.27998002       2.28134995      14.39600017       0.47000048      -0.97105093      -0.37056968
Al       4.00326994      11.05609997       5.13242013       1.03391616       0.12456322       0.50978475
Al       4.74979006       2.52635000      13.76169996      -1.44943909      -0.59429410       0.77149224
Al       6.40053000       9.34883996       3.14911997       1.16163289      -2.25031679       1.55944990
Al       5.12374000       2.51866995       2.92479005       0.00460550      -0.65592161       1.02359548
Al       9.55993003      11.76300005       3.92862994       0.14596847      -0.49779972      -1.46636689
Al       2.41777001       4.81101005      10.41990015      -0.96284560       1.56174414       1.89330490
Al       2.59897000       8.94585995       6.11974015       0.05817010      -0.15491606       1.03252306
Al       8.17448995       8.66303001       9.10763996      -0.14210483      -2.38940147      -0.76527659
O        7.73437000       8.59979994      10.78629999      -0.03512609       1.39339696       0.95116407
O        9.17786003       7.04371995      12.39319998       0.54277807      -0.16137580      -0.31935318
O        8.86942995       2.41430002       3.88583005       0.95252162      -1.28310904      -0.11290593
O       12.35280004      12.01239996      12.13960004       0.52436418      -1.05169532      -0.06692225
O       12.21259999       3.65379998       7.36570985       0.41406041      -0.20981736      -0.41866960
O        9.15506995       8.71089996      14.66850004       0.73744691      -0.36319094       1.23676745
O        7.29702997       3.92230004       5.46132993       0.17146266      -1.06210518       0.01216449
O       11.07739999       9.46453000      12.13860011       0.71230611      -0.93462284      -0.22552430
O        5.30873994       9.67704005      11.76390010       0.83737060      -0.06907049       0.41578619
O       10.22700007       4.71232002      10.38410014      -0.09352942       0.28443915       0.09846451
O        5.81343997       7.08092998      10.57400004      -0.26357248      -0.08037688       1.35693182
O        7.01283996       7.64028997       8.17747000      -0.68411018       0.32451587      -1.69923425
O       12.07200001       4.49467998       3.00066010       0.74619577      -0.32230290      -1.01481704
O        3.70231995       5.31288004      11.58399987       0.24678123      -0.01612882       0.07239540
O        0.59835698       0.38190501       5.54529991       1.03629477      -0.66901122       0.95298813
O       11.41210007       2.28109999      12.07059997       1.59467156       0.84817435       0.03908596
O        6.40852997       2.32663004      13.00590016       2.29627998       1.19209061       0.41524169
O        1.83831004       2.02830998       7.17931986      -1.30791925      -0.00682857      -0.74164736
O        6.00631001       9.70875996      14.63679989      -1.87067470       0.55918058       0.15619210
O       10.19150004      12.08209999       7.64346985      -0.20585373      -0.82700572       0.55971556
O        1.82216000       5.99737000       9.21498014       1.14686329       0.30980075      -0.28929419
O        8.34591000      10.14549998      12.77389992       0.25351627      -0.47051424       0.19335499
O        3.09149001       1.76862998      14.62229985      -1.27447787       1.35687549       0.79596641
O        9.47179003       3.57938005      12.98539986      -0.92024500       0.67452373       0.41209298
O        2.23440006      10.64520000       5.44801994       1.54887276       0.24515652      -0.15235585
O       12.54590006      10.69340006       6.87080008      -1.13551916       0.72162030       1.39717764
O        0.59698305       1.58772002       9.86871985       0.89660435       2.50928861       0.69471590
O        0.49128105       1.45152002       2.83701993      -0.24312784       0.91627665      -0.20982149
O        7.49291003       2.93397994       8.25588013       0.11730310       0.19267106      -0.03137511
O        3.15875002       1.20029004       9.69095986       1.82271178      -0.60007150      -0.63584504
O       11.60159997       5.25837005      12.84610005      -0.50815575       0.72378283      -0.36878177
O        8.22249996       6.66609000       5.86693990      -0.65962679       0.11086975       0.54780534
O       10.40490000       9.19758997       5.72326996      -0.01534542       0.05622515       0.96833955
O        9.55983005       5.08914999       4.06672008      -1.33682716      -0.89231741      -0.81264364
O        3.79372006       7.01076005       7.96958992      -0.28020694      -0.62000096       0.57190021
O        0.56781294      11.41839996       3.59533004      -1.22049406       0.97103905       0.44694518
Al       7.02552002      10.31580000      11.45530016      -0.03023169      -0.89217961      -0.26115245
Al       2.39280004       8.02818005      12.32399998       0.28542634      -0.46703885      -0.34420753
Al       1.30366994      11.17690005      12.17029994       0.76677448      -1.53795025      -1.60039816
Al       2.80037999       0.52683005      13.31450010       1.60222118       0.32063660       0.08414389
Al       8.82224994      11.90389998      12.56869997       2.42442539      -0.26570840       0.38424934
Al       1.21322005       8.10388995       3.73259988       0.96586525       1.58745600      -0.24427769
Al      11.19000000       5.78057001       3.95793987       0.24301306       0.62953611       0.73585973
Al       1.98883001       2.28826004       8.97523990      -1.05048694      -1.11992931      -0.56150055
Al       2.78277003      12.12139997       9.35281996      -0.87513414       1.06381603      -0.50306966
Al       9.79852995      10.53709995       6.77820010       0.46541662      -0.47989461       0.82566570
Al      12.56250002       0.31501695       3.92894013       0.08213778       0.45626875      -0.90415156
Al      10.38400004       5.98893995      11.57500013       1.05776894      -0.61596529       1.77913683
Al      11.73079995       0.34869694      13.48199996      -0.53706366      -0.31749870      -1.05583852
Al       7.60693994       1.85803006       9.66435001       2.45992802       2.34001098      -2.26961713
Al       4.83956004       8.62661004      10.36469990       1.00529189      -1.37244868       0.35068582
Al       3.09549998       5.25143999       7.80066999      -0.24723453       0.00552677      -0.28993048
Al       8.65765997      11.56710002       9.12436007       1.37114035      -0.33709844       0.24265244
Al       4.42124003       7.07524995       4.29217001      -1.70548956       0.30560228       0.61079186
Al       9.68758995       8.73666000      13.04090016      -0.43073701       0.46142295      -1.40301373
Al       6.16923997       0.85240898      12.07399994      -1.66963749      -0.05228507       0.62622320
Al       3.15986000       4.62511001       2.37774004       2.48689732      -2.61616972      -0.09756719
Al       7.92752002       4.02428999       3.81319016       1.32078124      -0.25927334      -0.42238761
Al       8.43359995       3.66329994       6.77397001      -0.90349462      -1.51866982       1.48308387
Al       0.00274391       2.12395997       6.62852990      -0.18093692      -0.00922324      -0.17004086
O       12.26269995      10.95160004       9.39431987      -0.90739175      -0.94356211       1.20659065
O        5.28350004       6.74450005       5.81074985      -0.13180260       0.98646557      -0.06124780
O        3.18762006       8.19179996      10.70729991      -0.08299397      -0.22419466      -1.62920794
O        0.38033099       8.94199995       5.18119999      -0.23993643      -0.56001796      -1.15069626
O        2.69243996       7.86573995       4.73866998       0.86844168      -0.92179307      -0.30251462
O        1.14977004       4.18949995      11.64130012       0.30470482      -0.54512168      -1.81590657
O        6.79921001      11.42580004       7.13788997      -0.70967722      -0.04522951       0.07136363
O        6.18019005       1.29327001      10.29510006      -3.02148860      -1.37896599       1.73886628
O        5.31511998       1.87494002       7.64810993      -0.95905064      -0.20949005       1.29015089
O        5.28132995       8.03295998       3.24728012       0.99284895       1.53768752      -0.68206155
O        6.70551006       7.59317001      13.40110014      -0.05203645       1.57230929       0.17818720
O        0.21541602       6.80751998       3.23605998      -0.31956775       0.37057799      -0.28414524
O        0.08315399       0.96666798      14.62789995       0.54958469       0.56294686       0.27752503
O        0.68896499       8.31599002       9.86703998      -0.53284872       1.45513783      -0.81035882
O       10.80030007       0.26904602       4.38254991      -0.04177696      -0.74393684      -0.55770161
O        5.74041000      10.97199997       4.39590997       0.77436673       0.12370925       1.85913788
O        9.32919995       7.25792995       8.89231010       0.34308655      -0.61465479      -0.13857692
O        1.68216996       1.76898005      12.55770004       0.37358649      -0.96841830       1.28600545
O        4.33649001       2.71662000       4.73160991       0.66430934      -0.87845290      -0.75489243
O        4.23906006       4.22916997       6.77459006      -0.18598059       0.71068150       0.23397451
O       10.29130004       7.35686001       3.88681003       0.41599425       0.92037426      -0.61013674
O        1.68887004      12.08569998       7.95435989      -0.20990056       1.02087302      -0.63517552
O        3.70959003       5.51667002       3.78889005       0.94959324      -0.29982648       1.28659999
O        4.75852005       4.18939997      13.76520006       0.05045363       1.17472804       0.83713785
O        1.81162994       3.99446999       3.71302000      -0.05974347      -0.36052292       0.04537294
O       11.95370000       6.14275004       5.63193005       0.11387598       0.94121521       0.42106535
O        6.81598997       2.93276006       2.93192997      -0.50281731       0.42680455       0.03125136
O        1.88163997       5.20730995       6.39104999       0.45521213      -0.72942027       0.22834144
O        5.30026003       4.32295006       9.57066994       0.09092210      -1.41233513      -1.88341732
O        4.35276000       9.42936999       6.26515998      -0.56733761       0.54401683      -0.26284852
O        1.19221005       9.31948998      12.30079992      -0.59445043       2.03210381       0.40986529
O        8.15463001       8.72079006       3.86960991      -2.85652569      -0.60848479      -1.31076100
O        2.34318001      11.61120004      13.42669991       0.31056298       1.01340796       0.63923420
O        5.71547004       0.82999097       2.60005013      -1.34545856      -1.68654769       0.46734442
O        1.81111998       9.24255002       2.47783985      -0.67387961      -1.69680196       0.43203503
O        9.59390005       2.26754999       6.51820988       0.56755301      -0.78056537       0.11910551
180
Lattice="12.72037669 0.0 0.0 0.0 12.72037669 0.0 0.0 0.0 32.72037669" Properties=species:S:1:pos:R:3:forces:R:3 step=0 confid=1 wdir=cand1 selection=->scf energy=-1291.96636689 free_energy=-1291.96636689 stress="0.021147630829291404 -0.002287149195929648 0.005059169791126189 -0.002287149195929648 0.014058261934163907 -1.4537098905094697e-05 0.005059169791126189 -1.4537098905094697e-05 0.018963188393567653" pbc="T T T"
Al       0.90976198       4.94394002      13.44039993      -1.36497749       0.57906577      -0.81942987
Al       5.75464995      10.90069996       8.72955993      -0.14828239       2.83270580      -0.95277768
Al       5.09248998      11.74260000       2.87180987       1.98884292       0.32895571       0.52856021
Al       4.53047995       0.99947701       9.10831007      -0.49865029       0.19705265       0.71472244
Al       8.37403005       6.25372999       7.31192016      -1.04394710       1.45091669       1.02942686
Al      11.47710005       7.95481006       6.01940999      -1.22352649      -0.06712360      -0.67573488
Al      10.08059998       1.06852996       7.91736002      -0.57701539       1.94705373       0.14185897
Al       5.70575995       3.96881006       8.00430002      -0.34545041       0.64017947      -1.40429460
Al       6.68024002       5.63922004       5.42725984      -0.26173026       0.94536501       0.07062720
Al      11.29600004       3.46484998      13.39359997      -0.49913800       0.52305506      -0.13608889
Al       7.52045003       6.97405006      11.56089994       1.04538013      -0.46697024       0.23341629
Al       8.57933998       6.61692994       3.73399016      -1.88327859       1.41731659       0.94244557
Al       0.01090556       5.13261005       6.75820010       0.48048624      -1.04936049       0.99567767
Al       7.09965997      12.16209996       5.73896004      -0.90298709       0.74309041      -0.35840736
Al       2.49410995       7.91517998       9.21689002       0.13095241      -0.17376961      -0.01178209
Al       0.87921501       5.47402000       2.46902989      -1.33134167       0.32464278      -0.45669285
Al      10.35099995       2.14872997       4.82859016      -1.10516461      -0.36663403      -0.36990415
Al      10.14390001       2.69137997      10.95879985      -0.99021015       2.15923681      -0.08203877
Al       4.76898002       1.46155996       5.97556010       0.99086948       0.53424833      -0.65181435
Al      11.20429999       6.94109004       8.92594011      -1.50127479       0.77200643       0.04013311
Al       0.47571194       2.41969002      11.42260007       1.62220880       1.12713654      -2.48741978
Al      11.42129995      10.75889995      10.98850014       0.57448877       0.14746043       1.11056386
Al       0.23769894       8.03331997      11.70020007      -1.26553887       2.35566805      -2.63859547
Al       5.39104002       5.14240995      11.09610011       1.51302505       1.07738761      -2.22200437
O        9.70276002      11.37989996      11.08050002       0.71603637       0.78306039      -0.16591567
O        3.80722006      12.67039998       6.03567005       0.00283770      -0.65530575      -0.27225840
O       10.38270002      10.49409999       3.65163985       0.64858831       1.13726645       0.87036772
O        9.03495996      10.01659995       8.51202996       1.01443504       1.79888293      -1.18938152
O        1.81004002       9.03288997       7.91896004       1.75896058      -0.32698032      -2.04130725
O        5.87020999      10.54460002       1.88222004      -0.05343638       0.69140503      -0.15410398
O        2.28834997       5.42224005      14.36720002       0.30487366      -0.19777054      -0.86417326
O        2.43892005       4.00538000       9.33833007       0.55795923      -0.85146806      -1.29197189
O        3.66710995      11.33030003       3.82330992       0.78272755       0.22984927      -0.69002097
O        2.18914999      10.90600004      10.64489986       0.22896338       2.49814260      -1.20086614
O        8.55303996       0.59578797       8.82251002      -2.24210610       1.92708890       0.59209978
O        8.09683001      12.37150001       3.21004008       0.33995813       1.77629629       0.95141977
O        9.36378996       4.72172000       7.54995011       1.45624163      -0.22684959       0.65019325
O        0.17037202       3.38511001      14.24020013      -0.42343767       2.37293182      -0.11627080
O        8.76952004      11.71439995       5.85065006       1.88951654      -0.64238018       0.01349436
O        4.28465002      11.94550006       8.98806989       0.45189318      -0.38842368      -0.10464472
O        6.96423998       5.57963995       3.54789989       0.73107381       1.03488362       0.75388569
O        4.03666996       7.50268997      13.34400014       0.77311001       0.38799614       0.81918026
O       11.88810000       8.22451003       7.73696015      -0.29397433      -0.12757042       1.08125387
O       11.96969994       3.01269999       4.99872009      -0.38544433      -0.96212253      -1.86871171
O       10.26500003       2.41225000       9.22838011       0.34211276       0.20192638      -1.16284463
O       11.57830006       7.03519997      10.62690006       1.03658976       0.30243989       0.79213811
O        7.21499995       5.09779997      11.76429994      -0.59989948      -1.33725910      -0.01232345
O       11.75219994       0.94175296       7.31863013       0.40100015      -0.23561870      -0.06659359
O        5.23816996       9.31818996       8.92219003       0.26338756      -2.06167849       0.88331510
O       10.24809999      12.69223820      13.82879996      -1.59800535      -1.11079976      -1.46319017
O        7.39112997      12.22810002      12.34129990      -0.03753072       0.65454116       0.19602832
O        6.66771007       1.26599994       5.56525999      -1.01236257      -2.28204017      -1.28579786
O        4.12040999       3.34369997       1.91951996       0.57971180      -0.56744947       0.69907569
O        4.63771005       1.16287000      12.65579998      -0.03594192      -0.03851460      -0.20615991
O       11.97529996       5.46452004       8.40989985      -0.08138881       2.53184386      -0.02731862
O        8.20441005       2.38671995      10.99829989       0.50517465      -0.06367010       0.95125967
O        7.16462001      11.20289999       9.89164996      -0.22741548      -0.45701217      -0.38963287
O        1.24724998       6.67633995      11.99509999       2.38658437      -1.13358587       1.03406423
O        6.75638000       5.30111001       7.27543007       0.09292985       0.25628326      -0.30948481
O        2.19517003       5.69712001       1.50051001       1.75453664      -0.82284600       0.01168094
Al       3.86541999       5.61460000      13.60260007      -1.22411257       0.75795977       0.68127860
Al       2.04184001      10.82040004       3.60743004      -0.02040385      -1.72581757       0.92054968
Al       7.38387999       1.33885005       3.40899993       1.13626317      -1.92729499       1.01712672
Al       9.38337998       9.06576998       4.06955006       4.05184633       0.42742225       1.98637182
Al       5.49735998       8.60458000      13.49580011       1.14729592      -0.20269198      -0.18079496
Al       7.92431003       8.63565003      14.39800003      -2.09347869      -0.04511824      -0.95291856
Al      10.86980001       4.08085000       8.58492998      -0.54923598      -0.64136065       0.21835623
Al       0.15922096       3.27492000       3.42011995      -1.71485396      -0.34220579      -0.16829771
Al       3.16100000       4.21704999       5.37349994       1.65943131       0.01971263      -0.40254239
Al       7.84729998       3.51108995      12.40780014      -0.18067190       1.22776354       0.01545917
Al      12.01280001      10.62380001       4.67292984       0.37970898      -1.13433945      -0.69336483
Al       5.24448003       7.84203998       7.33922990       1.28345175       0.32306388      -1.09753768
Al       0.28641505       9.36311998       8.68546988      -0.13514246      -0.20080672       1.05432293
Al      12.16429995      11.97459996       7.78278013      -0.38956379       0.64107840       0.44440897
Al       2.02977003      12.58680001       6.26505004      -0.93567165       0.19821843       0.30637717
Al       1.27201999       2.06980004      14.29890016       0.17039275      -0.95133862       0.42051530
Al       4.77833000      11.01790005       5.65529993      -0.68192791       0.15554090       0.54373121
Al       4.74144994       2.78366999      13.71909999      -0.25575240      -2.07625884       0.01314967
Al       6.36517003       9.20755995       2.83404991       0.16435176       0.76252573       0.39375786
Al       5.09222997       2.50620996       3.10975998      -2.36865420       2.13250212      -1.21149924
Al       9.52296996      12.00000001       4.15982002      -0.40666422       0.87503423      -0.53600902
Al       2.13755996       5.12712998      10.71140010      -0.88245714       0.41251871      -0.35149685
Al       2.58240005       9.11931997       6.23907006      -0.95029590       1.11792747       0.98144497
Al       8.04369000       8.74460998       9.03144991       0.12413709      -3.92057053      -3.59913818
O        7.75342996       8.70830005      10.69320005      -0.23583988      -0.35880227       1.12632562
O        9.44280004       6.99539002      12.04100013      -2.00852936       0.84283572       0.18253495
O        8.98474996       2.29593997       3.69479999       0.80142584       0.64822329       0.60469506
O       12.54120001      11.68369995      12.16910008      -0.65879939      -0.00250042      -0.54618694
O       12.11470002       3.56613000       7.28486009       0.06240370      -0.91846399       0.46252616
O        9.58281004       8.32802006      14.36499990       0.25893673      -0.88307737       3.77660434
O        7.50739002       3.88333994       5.38548999      -0.14319983       0.62015163       1.29514785
O       11.37160004       9.20952003      11.96380000       0.29053650       0.14747128       0.09945344
O        5.67718006       9.69453006      11.87479993      -0.78461728      -0.84856694       1.24327590
O       10.46919998       4.53470998      10.58720010      -0.08882478      -1.49437553      -0.70729886
O        5.85907000       6.91912004      10.77240004       0.18890998      -0.72321040      -0.37386720
O        7.03521002       7.82996999       7.68867992       0.33236630       1.13428404       1.32204945
O       11.94480006       4.71807002       2.73877995       2.00642763      -2.07235878      -0.48951060