180
Lattice="12.75353219 0.0 0.0 0.0 12.75353219 0.0 0.0 0.0 32.75353219" Properties=species:S:1:pos:R:3:forces:R:3 step=0 confid=0 wdir=cand0 selection=->scf energy=-1298.24769555 free_energy=-1298.26287313 stress="0.016758223207996522 -0.004318013495007554 -0.0005594361622580981 -0.004318013495007554 0.011218128873348244 -0.0007518049285967962 -0.0005594361622580981 -0.0007518049285967962 0.011776650810557128" pbc="T T T"
Al       0.49525001       5.41176995      12.98030014       1.57353897       0.65845966      -0.10759338
Al       4.91926999      10.52500000       7.91570007       0.71957612      -0.53636800      -0.88097344
Al       5.42301002      11.54930006       2.64590992      -1.59795620      -0.22196852      -0.30684665
Al       5.05602994       0.24090096       8.60159997      -0.06711493       0.89898456      -1.36219676
Al       8.30700006       6.52170004       7.46392994       0.15553117       0.13407165      -0.46037572
Al      11.88240001       8.67305002       6.21391005      -0.65589199      -1.20382388      -1.47759228
Al      10.11189995       1.04325998       7.99224016       1.15560274      -0.03793382      -0.78777624
Al       5.69412002       4.31616004       8.26173000      -0.35646610      -0.71707830      -1.59491173
Al       6.87715999       5.47000003       5.44249985       1.08783595      -0.08994559      -0.52756199
Al      11.21969995       3.26898996      13.26980010       0.03781976       0.03665605       0.24490946
Al       7.51342006       6.72048998      11.72229986      -0.52676401      -0.28036125      -1.20232347
Al       8.88501998       6.66146995       3.87836016       0.08516549      -0.24069440      -1.09565075
Al      12.69031944       5.46424003       7.01286991      -0.74154170      -0.30730936       0.18430486
Al       6.68047999      12.19710004       5.64201013      -0.21673184      -0.22085706       0.27460806
Al       2.49888004       7.69416006       9.51888000      -0.23067913       0.76926321      -0.49174569
Al       2.20842995       5.17658997       3.32438002      -0.31743777       0.28975709       1.09602725
Al      10.51630005       1.90289995       5.09870993      -0.69383563      -1.52589399      -1.75842113
Al       9.88372995       2.90052996      10.87519984      -1.01817541      -0.31990786      -1.65650209
Al       4.53933002       1.62499003       5.90319007       0.23853445      -0.95501578      -0.80525261
Al      10.93959998       7.24576997       9.09551014       0.73568665       0.31944540      -1.18776637
Al       0.40114106       2.69507005      10.92750002      -0.72019548       0.28990643      -1.11882126
Al      11.52949995      10.84400002      10.79380010       1.25479962      -0.08165540      -1.40372985
Al      12.65469997       8.21263999      11.38569999      -0.03297526      -0.47294673      -0.52410066
Al       5.29427995       5.10950997      11.53670000       0.25243555      -1.06762497      -0.21186142
O       10.18090001      11.95709999      10.67799999      -1.02098533      -0.26551072      -0.74495406
O        3.37048997       0.19020898       5.64600999       0.14727507      -0.00126830       0.09885587
O       10.10100002      10.54230004       3.25566016      -0.10162727       0.20366530      -0.28833216
O        9.24098994      10.07900005       8.41457010      -0.65198166       0.05377444      -0.79968603
O        2.13745004       8.55471000       7.89677016      -0.75513152       0.44483802       0.71252924
O        6.28162997      10.17760003       2.10039002       0.91149295      -0.08986649       0.19836680
O        1.88802997       5.30035994      14.05930008      -1.42340358      -0.21644889      -0.50020818
O        3.01838994       3.87816000       9.35852984       0.22880816       0.60644367       0.97045608
O        3.56144006      11.44170004       2.90423015       0.72472530      -0.13125232       0.63286011
O        2.13083006      11.67190002      11.06270005      -0.08944980       0.72105777       0.89215423
O        8.56291001       0.48371406       8.84287002       0.35767707      -1.39020997       0.39184272
O        8.19965995       0.29782495       3.13566989      -0.14663691       0.11924803       0.05137965
O        9.12407996       4.79770001       7.76071002      -0.19243493       0.69029774      -0.39050385
O       12.64849997       2.72058004      14.10760007      -0.12467204      -0.35608491      -0.68835342
O        8.35295001      11.34340003       5.44443984      -0.65310763       0.55040485       1.06965859
O        4.08148995      11.55140006       9.04940004      -0.59807362       1.11435450       0.41238245
O        5.51822994       5.49593995       4.45310014      -0.20722027       0.33091542       0.04835184
O        3.66373997       7.46697999      13.70700014       0.56023419       0.62040389      -0.56702435
O       11.71430003       8.42533001       7.98853999       0.10218266      -0.15093976       1.54100502
O       12.10549997       2.42453000       5.46215000       0.67064669      -1.07519379       1.40618212
O       10.19169995       2.57788995       9.07030990      -0.67853877      -0.32230044       1.31831452
O       11.48110004       6.99445001      10.80090009      -0.28277213       0.03555087       0.49191919
O        7.35791994       4.92608994      12.03589986      -0.33898417       0.86662008       0.13523162
O       11.95719998       0.93488199       7.93690012      -0.55098059       0.73695455       0.94623622
O        5.17629996       9.07535994       8.90222990      -0.13395524      -0.38849947      -0.07353389
O        9.52483000       0.27128306      13.12170009      -0.16041245      -0.45156865       0.53549518
O        6.84434999      12.09639994      12.27010006       0.47381794       1.21880057       1.16724072
O        6.18793003       1.10696999       5.68259994       0.14496597      -0.23198740       0.22177379
O        6.27586002       3.02118003       3.18115013      -0.63690439       0.07762020       0.54064736
O        4.32610997       0.94054099      12.30220016       0.53969807       0.85722407       0.10826399
O       11.77309994       5.81419006       8.54075013      -0.72596303       0.81370508       0.25387718
O        8.05076999       2.34985999      10.98849987       0.65745599      -0.44390281      -1.22704624
O        7.44806994      10.48860001      10.01310001       0.85028884       0.45177163      -0.99182133
O        0.99087905       7.16439006      12.29799985      -0.77864922      -1.18068815       0.88948069
O        6.50921000       5.71960005       7.34879014      -0.04994043      -0.01374831       0.62849985
O        3.59408005       4.64237002       2.46822987      -0.12769766      -0.18867441      -0.67881652
Al       3.40197002       5.65089001      13.38589990       0.99702757      -1.14588311      -0.00022504
Al       1.89198000      10.81769994       2.86040986       0.30829625      -0.22115945      -0.49675008
Al       9.49021003       1.43498995       2.28605996      -0.25056641       0.47372344       0.36941951
Al      10.04270005       9.01515001       3.91177007      -0.35050054      -1.09082117      -1.03519064
Al       5.34370002       8.21110000      13.29680014      -0.71712461      -0.85141497      -0.00535671
Al       8.02078006       9.37563000      14.73800010       1.24124245      -0.41924290      -0.86044058
Al      10.70180005       4.36447004       8.62148988      -0.49996724      -0.78498367      -1.40743352
Al      12.73181943       3.20873998       4.03825995      -0.17494500      -0.19277083      -1.15436427
Al       2.75894994       4.18144997       5.75087009       0.75593252      -0.31308417      -1.59569722
Al       7.68621996       3.24491002      12.48000009      -0.12849424       0.71394950      -0.29143214
Al       0.37970696      10.89370002       5.01114991      -0.07772298       0.88501998      -1.32584335
Al       5.51021001       7.37895995       7.82100993      -0.06683290       0.77755744      -0.49494656
Al       0.43958403       9.39113995       8.38921985       0.01184254       0.52642438       0.24294416
Al      12.35970006      11.99320002       7.54013005      -0.18004819      -0.13894053      -0.58644301
Al       1.83292999       0.35865802       6.50009994       0.42837404       0.78985727      -2.39014326
Al       1.48575003       1.88026996      13.74700006       1.03281606       0.58458907       0.37657747
Al       3.76945999      11.30820002       4.87498005      -0.74229024       0.14866590      -1.15815856
Al       4.57446996       2.54531998      13.38310013      -1.04533844       0.10106924       0.51809437
Al       6.67500005       8.89844001       3.15586997      -0.64648936       0.31540617      -1.17434622
Al       6.90589994       1.43510996       2.42824010      -1.61934896      -0.25394141      -0.71287898
Al       9.28196002      11.88630004       3.91550004       0.37425051       0.58166081      -0.79684590
Al       2.19626002       4.84750000      10.61749996      -0.03169911      -0.26551504      -1.20965845
Al       3.15806994       8.70053006       6.45978001      -0.10796619       0.42919103      -1.53969126
Al       7.95780005       8.88958995       8.98551984      -0.31377734      -0.91521581       0.81573506
O        6.98779994       7.85115999      10.31190001       0.52618416      -0.31092821       0.99624564
O        9.23670003       7.12050006      12.10400002      -0.84730486      -0.23801690       0.29163322
O        9.57152004       2.62801006       3.79046016      -0.21715490      -0.07040260       0.07932046
O       12.21270004      11.81319998      12.14780001       0.52784503       0.13195630       0.21068750
O       11.85220002       3.85408006       7.31767003      -0.51391914       1.63495451       0.57014292
O        9.64847001       8.71960003      14.42689985      -0.53464291      -0.05336385       0.67321063
O        7.58166000       3.89585005       5.45463994       0.49384916      -0.78629251       0.06113572
O       11.25850002       9.33640000      11.76740016      -0.37075070       0.16866909       0.00821041
O        5.44247995       9.48411001      12.00600014       0.34025397      -0.00114841       0.01762297
O       10.17729994       4.60666995      10.37439997       0.01836059       0.69778343       2.43385329
O        5.65570001       6.83123005      12.04400014       0.73351024       0.93728941       0.71851053
O        7.19184995       8.09285996       7.62539994      -0.07452519      -0.41030551      -0.30137460
O       11.70039996       4.63251995       3.97350000      -0.07093849      -1.55748610       0.02975039
O        3.49149995       5.49317001      11.57820004      -0.57627324       0.03230537       0.71905497
O        0.29106200      12.54709995       5.84837998      -0.08475053      -0.73176549       0.11555814
O       11.44009998       2.00800997      11.54950008      -0.38992013       0.42713440       0.90746292
O        6.30999995       2.17397003      13.03399988       1.66031434       0.16628482      -0.27574116
O        1.70059998       2.13655002       7.03602994       1.08007703      -0.93229580      -0.36912595
O        8.00548998      11.05069996      15.04849999      -0.23687987       1.08358513      -0.57441496
O       10.40040003      12.04190002       7.30309994       0.32210664      -0.46435963       0.55343630
O        1.80294006       6.06063996       9.42084999      -0.70538145       1.06987673       0.33002096
O        8.31611003       9.95571000      12.53950016       0.90603907       0.44699917       0.46775671
O        3.14978997       2.47682994      14.32780011      -1.79121402      -0.83904513      -0.49646740
O        9.46038002       3.27991005      12.78170008       1.48590617      -0.00348202       0.57016780
O        2.06324999      10.65699995       4.68844999       1.10989233      -0.06794876       1.32457734
O        0.04246786      10.22610006       6.76639991      -0.39744698       0.17583310       0.67149894
O        0.72986794       2.74158996       9.26028988      -0.31108683      -0.34567955      -0.13954484
O       12.72120262       1.92576997       2.86156016       0.32327752       1.38310968       0.40050012
O        7.08848002       2.90449006       8.02657012      -1.17854897      -0.01262486       1.67300324
O        2.76918006       1.00300001       9.83101003       0.77998359       0.25221473       0.60230394
O       11.46130005       5.10713003      12.98130011      -0.13457290      -0.41436073       0.61750515
O        8.32768004       6.60058000       5.56825998      -0.67893684      -0.41779798       2.10144017
O       10.20250003       9.27744004       5.68227011       0.42781371       0.29878380       1.99085838
O        8.19064996       5.23766001       3.22778985       0.37953284       2.11743134       0.05716002
O        4.08299997       6.77138002       8.89280016       0.94854164      -0.12017575      -0.66192026
O        0.33811705      11.73569995       3.26022993      -0.02172969      -0.18981456      -0.20264794
Al       6.86665005      10.48059998      11.62610011      -0.00200641      -1.13716587       0.25999907
Al       2.40358998       8.21273997      12.57590014       0.56791323       1.17867173      -0.26228557
Al       1.18811000      11.38260005      12.59379994       0.12529836      -0.43635655      -0.62608551
Al       2.73269998       0.61709904      11.70280004      -1.35457363      -0.58431675      -1.20087501
Al       8.29685003      11.83609997      13.51830016       0.13119861      -0.30679181      -0.22516384
Al       1.38862002       8.24129998       3.78679995      -0.37979710       0.32678142      -1.21621922
Al      12.03460002       6.22567997       4.16101004       0.02789617       1.82155268      -0.38327750
Al       2.54902004       2.35793004       8.66083998      -0.29294941      -0.58554402      -0.21234536
Al       2.37214003      12.11550001       9.37582010       0.79746472      -0.75319595       0.23773375
Al       9.53049996      10.64300001       6.68331010      -0.25880365      -0.19798804      -1.25359532
Al      12.01969994       0.41134095       2.91086995      -1.05342316      -2.24602201      -0.31969437
Al      10.42789996       5.83036996      11.68480001       0.75570438       0.17320905      -1.16850929
Al      10.88689997       0.22113298      12.08089994      -0.61810731       0.25158940      -0.41141694
Al       7.48167001       1.75606994       9.35776013      -0.24945508       0.99756730       0.01455207
Al       5.17468995       8.31545998      10.57239998      -0.14792215       0.05745410      -0.72751187
Al       2.96481006       5.38288996       8.20356988      -0.15405194      -0.81878114      -0.26226667
Al       8.86748999      11.49460004       9.39450993      -0.17882016       1.55867581       0.28224820
Al       4.36093004       6.99399994       4.73185989       0.01999343       0.27238076      -2.35392840
Al       9.77714001       8.78112001      12.73519989      -0.58830409       0.42641745      -0.43453108
Al       6.01630001       0.86591905      11.80200001      -0.03116780      -0.95208745      -0.43796519
Al       4.75332001       4.02919996       3.59435002       1.06523581      -0.78896299       0.19065004
Al       7.99970000       3.59381006       3.45747989       0.51514006      -1.32344877      -0.49281605
Al       8.36054997       3.32137994       6.88191998       0.78301923       0.48103626      -0.72676128
Al      12.72499999       2.39372997       7.29277014      -0.51399932      -0.31373933      -0.44111880
O       12.44009998      10.96620003       9.23196987      -0.46249632      -0.71428265       0.68312781
O        4.62408005       7.69771995       6.33495990       0.90045189      -0.76348962       2.06441494
O        3.40246001       8.23260998      11.01020007      -0.79948350       0.03113317       0.19760468
O       12.69550005       9.02588006       4.63502997      -0.28031045       0.42147537       0.03455967
O        2.72483003       8.09297997       4.89605990      -0.12104804       0.03443053       0.22804068
O        0.70523896       4.41249997      11.48749994       0.12170703      -0.23950899       0.30811823
O        6.17399998      11.82420003       7.51264984      -1.07080578      -0.08253383       0.43546394
O        6.01708001       0.88966498       9.98054005       0.23821014       0.20514011       0.29031103
O        4.19965002       1.61532005       7.70906000       0.52310412      -0.31652842       1.37742711
O        5.25170994       8.13261004       3.61178997      -0.41394590      -1.51152129       1.54358782
O        6.62713005       8.44683004      14.37309988      -0.20414598      -0.42470009       0.39134522
O        0.89507005       6.51756994       3.36368000       0.28889567       0.03366595       0.20502004
O       10.69980004       0.37400702       1.69013008       0.44619384       0.55463095       0.41710028
O        0.86589201       8.69177004      10.00159992       0.16904867      -0.26348794       0.69150859
O       10.65430003       0.18495300       4.35852006       0.49917445       1.42679046       0.81692147
O        5.55869996      11.36349997       4.53178985       0.47711336       0.32835511       0.44549263
O        9.18532000       7.47376002       8.94815986       0.82897150      -1.25380634      -0.60425753
O        1.57348004       1.95527004      11.89579990       0.54297495       0.54713587       1.13353142
O        3.92995006       2.92940000       4.92522986       0.51994969       1.05551019       0.60044064
O        4.09600003       4.51978001       7.16682003       1.85124100      -0.59373340       0.70316419
O       10.59420003       7.23041000       3.69516015      -0.27966107       0.67452330       0.32354284
O        1.55144003      12.12460004       7.87681016       0.03496857      -0.68253082       1.74921436
O        3.14870005       5.65426995       4.81299989      -0.25973211       0.12454597      -0.00013971
O        4.86731006       4.29893002      13.18390003      -0.66321859       1.13929203       0.02336063
O        1.58244004       3.78806995       4.35055997      -0.01243714       0.81093610       0.11148785
O       12.12829997       6.81847996       5.94968010       0.57906075      -0.96510219      -0.10270308
O        8.18774994       2.48704004       1.68339006       0.02104270      -0.62101923       0.51009848
O        1.64860001       4.99238994       6.93004999      -0.38091412       0.71760852       1.14831613
O        5.68601005       4.44703998       9.96519994      -0.01055995       0.27090498       0.77215620
O        4.00890003      10.25760000       6.43833005      -0.10930972       0.23070173       0.77612618
O        1.50508999       9.70159000      12.88199991      -0.12337879      -0.50075705       0.10461974
O        8.34155001       8.34899004       3.39721994       0.05197120      -0.42873948       0.68952397
O        1.70897995       0.09973173      13.34900010       0.59355266       0.07819933       1.03305360
O        5.63956998       0.34415700       1.99456990       0.83391400       1.05654080       0.09111383
O        1.57136002       9.17585000       2.34742993       0.29969444       0.74376037       0.29416112
O        9.52753005       1.98127003       6.56261005      -0.77996380       0.25180228       0.87544144
180
Lattice="12.75353219 0.0 0.0 0.0 12.75353219 0.0 0.0 0.0 32.75353219" Properties=species:S:1:pos:R:3:forces:R:3 step=0 confid=1 wdir=cand1 selection=->scf energy=-1298.42789521 free_energy=-1298.43351875 stress="0.01610048920019792 -0.0029792340607345856 -0.0010405881650972597 -0.0029792340607345856 0.013177379295085518 -0.0014300309218442944 -0.0010405881650972597 -0.0014300309218442944 0.013524898384286797" pbc="T T T"
Al       0.52643597       5.37311004      12.90199987       0.44661675       0.93321719       0.34151835
Al       4.96504994      10.52319996       7.96560990       0.82843215       0.33446679      -0.58967020
Al       5.44596995      11.69639994       2.59986992      -0.77444613       1.17166947      -0.88121303
Al       5.12698001       0.31700996       8.53742991       0.95219943      -0.15813361       0.28077226
Al       8.33715004       6.53152995       7.44372986       0.02057405      -1.01058040      -0.86060268
Al      11.87200001       8.55937001       6.06795999      -0.64479361       0.24554555      -0.54005179
Al      10.23070000       0.93491196       7.87723006      -3.21535599       0.16295604      -0.41557265
Al       5.76745003       4.17509004       8.34720984      -1.23386900       1.21180556      -1.51977363
Al       6.86101006       5.29227994       5.50530016       0.97015567       1.40385792       0.31422523
Al      11.17999999       3.35791996      13.27679985       0.58266985      -1.72026783       0.58013354
Al       7.34077001       6.64117998      11.67540007       1.23438783       0.33889920      -0.01344016
Al       8.87547995       6.65277995       3.86243998       0.41013080       0.34096908      -0.26802430
Al      12.60398618       5.43231998       7.03583014       1.32972030      -0.66671652       0.53117835
Al       6.81078997      12.33900005       5.63098987      -2.54835964       0.05832134       0.64874042
Al       2.28809999       7.86275002       9.54951995       0.54015783      -0.09973168       0.16895970
Al       2.30855997       5.24813997       3.48570001      -1.17789462      -0.01139901      -0.73996358
Al      10.49570003       1.74075001       5.06769987       0.53526648       0.26633732      -0.81581471
Al       9.77052004       3.02580995      10.78309985       1.00391831       0.11022884       0.88744631
Al       4.64581003       1.67776006       5.94648008      -1.06810642       0.02986265      -0.12582827
Al      10.96069994       7.25750003       9.14425984       1.14268103      -0.42719097      -1.45372261
Al       0.33279603       2.55435994      10.88590009       0.01655094       0.58781048      -0.53045361
Al      11.35080001      10.85169996      10.66609998       0.64724653       0.68740577       0.23007593
Al      12.62659998       8.38568999      11.48870003       0.03409436      -1.04372322       1.02277356
Al       5.27701996       4.92734999      11.53159995      -0.59019090      -0.07816812       0.36264176
O        9.95495996      11.92700000      10.52509995       1.30100468       0.42575108       1.34518266
O        3.52893003       0.20725803       5.75957991       0.65271106       0.36065509      -0.09603911
O        9.86363995      10.57020005       3.13027014      -0.30236142       0.44711674       0.36129490
O        9.04085998      10.13989995       8.17138003       0.28190566       0.41970226      -0.30755468
O        2.10340002       8.79459999       7.99810992      -0.02404117      -0.28843626      -0.58677253
O        6.34194997      10.30320000       2.14016984       0.60489748      -1.40677692       0.39030444
O        1.76467998       5.31660004      14.07060005       0.79993367      -0.25959256       0.10378744
O        3.16052997       3.83500996       9.41158008      -0.80511536       0.74243614       0.30118370
O        3.66873004      11.64329997       2.96688013       0.89696535      -0.51324714       0.62834429
O        2.22745005      11.81600002      11.25499997      -0.39349550       0.22455485      -0.52641106
O        8.56169001       0.43319706       8.73341001       0.68463053       0.12747987      -0.34503063
O        8.09382999       0.47203501       3.03625997       0.68805723      -0.82604958       0.15987980
O        8.99545996       4.73892000       7.64370000       1.12081330      -0.16432029       0.24963670
O       12.49619996       2.65384999      14.14070014       0.43141821      -0.75943387      -0.62820338
O        8.35456997      11.62449999       5.47951003       1.09912595      -0.53509415      -0.64841833
O        4.18864997      11.59730002       9.12730006      -0.61469100       0.81970681       0.18185999
O        5.51780002       5.48323004       4.47107987       0.99344255       0.20795682       0.29798601
O        3.64284994       7.43207000      13.62330012      -0.44909218       0.95078484       0.12673352
O       11.71799996       8.34218004       7.89862008      -0.26808331      -0.88419613       0.75780133
O       12.14750003       2.23556003       5.62601985      -0.98397921       0.02319140      -0.96272884
O        9.87476001       2.62982999       9.07838004       0.37311434      -0.80002234      -0.88171708
O       11.54179997       7.03651001      10.82770001      -1.10363197      -0.00308408       1.15560148
O        7.16408997       4.93835999      12.13539985      -0.09878208      -0.62878586       0.09462209
O       11.90879994       0.96793302       8.13584998       1.62008062      -0.21293627       0.47014496
O        5.31057004       9.07297006       8.87320995       0.12504113       0.46913516       0.01739830
O        9.50783005       0.14632701      13.13639987       0.59736943       0.82222303       0.36741242
O        6.79735999      12.07190002      12.37589987       0.50826785      -0.54767928      -0.15668206
O        6.24620002       1.19843998       5.75861008       1.13999847      -0.05713804      -0.30593833
O        6.30218994       3.13286998       2.98285009      -0.23746324       0.53525195       1.34829478
O        4.31336001       1.08414002      12.35760014       0.58043800       0.39606189       0.08923910
O       11.60250002       5.79484002       8.47317992      -0.42516980       0.78259911       0.23350002
O        8.13010002       2.35042994      10.97120011       0.11850039       0.18143582       0.15455819
O        7.56562996      10.41869995       9.95111002      -1.21126059      -0.48084724       1.69979231
O        0.88961996       7.15852994      12.37229992      -0.24027972      -0.53268311       0.20746875
O        6.59809995       5.71133997       7.56858992      -0.45822015      -0.29095162      -0.86326944
O        3.57553998       4.50611995       2.53215985       0.00037416       0.34456895       0.66253670
Al       3.39724994       5.59838002      13.54919984      -1.04970324      -0.76028801      -1.13282626
Al       2.09263004      10.91110005       2.94382000      -0.90601934       0.45388246      -0.17996628
Al       9.53327003       1.53675000       2.24487993      -0.91428151       0.79055970       0.15979237
Al       9.84530994       9.02328000       3.83018987       1.66831758       1.00179127       0.13023974
Al       5.30098002       8.09175997      13.26340005      -0.56495474       0.29881208      -0.36277809
Al       7.97401005       9.35751998      14.63790007      -0.41227434      -1.08677886       0.02085097
Al      10.55929999       4.26634003       8.52923989      -0.55854065       1.51268669      -0.42129214
Al       0.04454975       3.15827999       4.13043986       0.20285038      -1.20854918      -0.67808171
Al       2.89647000       4.27401000       5.86751001      -0.42169692       0.04099121      -0.77894992
Al       7.69385002       3.25860004      12.46750003       0.39456206       0.66728135      -0.04855776
Al       0.41716804      10.92670004       5.07117011       0.83085529       0.49207536      -1.81661893
Al       5.64137996       7.44158005       7.88056994      -1.17778979      -0.31288203      -0.84094902
Al       0.30909001       9.36645995       8.35495015       0.62743584       1.04873309       0.51805538
Al      12.35600000      11.97589998       7.58862984       0.13039908      -0.22373954      -1.14663458
Al       1.93838002       0.27929700       6.48348014      -0.03021732       0.34447406      -1.10064387
Al       1.30997995       1.68041994      13.80200012      -0.27497084       0.75383445       1.78105544
Al       4.00692005      11.36759998       4.96819988      -2.11547234       0.15770825      -1.12752283
Al       4.50169996       2.56799997      13.64339998      -1.41887242      -1.10778953      -0.68334434
Al       6.68797001       8.88487000       3.09295993      -0.84859440       1.93472127      -1.16770236
Al       6.79852005       1.62048000       2.22083000       0.24286157      -0.76687680      -0.75258813
Al       9.20687003      12.04910002       3.78495003      -0.28941551      -1.03850938      -0.57149207
Al       2.18447996       4.75071000      10.64129999       0.81737063      -0.06078988      -1.63493028
Al       3.15754003       8.77733999       6.42364992      -1.38221862       0.50467018      -0.21663073
Al       7.96745001       8.76555994       9.03601007       0.17426922       0.44082005      -0.96704862
O        7.02794997       7.72341003      10.29009991       0.04811539       0.17901723       0.18807727
O        9.08808006       7.01923995      12.22140014       0.51817887       0.10404288      -0.34777699
O        9.49827995       2.57358997       3.84302008       1.15867216      -0.23318993       0.22626930
O       12.20530006      12.04109999      11.83160003      -0.93368520      -0.93950632       0.13954424
O       11.89150003       3.83112995       7.43498990      -0.23665636      -0.42234186      -0.13917151
O        9.58927003       8.72256000      14.47769992       0.19488697      -0.22702265      -0.45321132
O        7.54358994       3.74023004       5.40174987       0.49403119      -0.39907473      -0.00177960
O       11.03440005       9.39289994      11.65589993       1.02993549       0.01548044       0.24295295
O        5.45943998       9.37089002      11.94720002       0.35628246      -0.07292295      -0.17255680
O       10.20939994       4.72319999      10.40770016      -0.39256168      -0.49431973       1.13919334
O        5.51995995       6.82086003      12.01079985       1.07922159      -0.85530316      -0.64099458
O        7.29214003       8.05696999       7.51343985      -0.13421778       0.44124300       0.48020611
O       11.78810001       4.54263000       3.88674015      -0.45040619       1.08104114       0.14445890