180
Lattice="12.72056184 0.0 0.0 0.0 12.72056184 0.0 0.0 0.0 32.72056184" Properties=species:S:1:pos:R:3:forces:R:3 step=0 confid=0 wdir=cand0 selection=->scf energy=-1297.60269547 free_energy=-1297.60269547 stress="0.009105634060941104 -0.002011667638983938 -0.0008949372568450352 -0.002011667638983938 0.009090153420618433 -0.002351452892951863 -0.0008949372568450352 -0.002351452892951863 0.01033471544587402" pbc="T T T"
Al       0.60194996       4.93715000      12.96539993       0.39829670      -0.46806721       0.09023712
Al       4.66081996      10.29519999       9.12658009       0.44112655      -0.37241377       0.31552729
Al       5.18591000      11.86379994       1.55759003       0.89450553      -1.90261620      -0.04908519
Al       4.63066994       0.70160501       8.27834010       1.26669898       1.83132635      -0.34109098
Al       8.79567001       6.86284997       7.44423016      -0.14747226      -1.60471565      -0.02448159
Al      11.89719994       9.09879998       5.96142984      -1.04198899      -0.67911883       0.48324458
Al       9.97025998       1.58569003       8.26652013      -1.80580029      -0.43057470      -0.23435466
Al       5.55774996       3.98944003       7.82654996       0.18655451      -0.55255651      -2.32964327
Al       6.84150995       6.46513002       5.70596994      -0.15601785       0.01404445       0.16178870
Al      11.14939996       3.22006000      13.11560007      -0.01185972       0.42075806      -0.26393181
Al       7.37242995       6.63201006      12.21240000       2.72430016      -0.17560435       0.37675535
Al       9.15257997       6.11005004       2.29554995      -0.57094138      -2.36357109      -1.22559816
Al      12.24799996       5.99853002       7.01563988      -1.61300231       1.04029774       0.11600223
Al       6.89037001      12.09029998       5.48021999      -1.05900366      -1.22207627       0.18297684
Al       2.72278996       8.14546002       9.24671004      -0.12892300      -0.61323289      -0.89868150
Al       1.59719998       5.75590998       4.81212992      -0.87355122      -2.06998807       0.43060261
Al      10.62279999       1.77372003       5.44189996      -0.93583001      -0.01243201       0.18745553
Al       9.33042004       3.35214001      10.82779998       0.48684298       0.08327816       0.03411266
Al       5.05216004       1.59577006       5.64621990      -0.62570571      -0.61655647      -0.04579096
Al      10.74419995       7.97337002       9.14180006       0.50120545       0.38521856      -0.55454525
Al       0.42386299       2.35462001      11.15890000       0.91563514      -0.37733201       1.02762158
Al      11.41590006      10.81610000      10.55479990       0.20993085       0.72751767       0.89485726
Al      12.56740004       7.96116999      11.56450016      -0.59636289      -0.07266472      -0.84372634
Al       5.34618005       5.18667998      10.99379990       0.61151762       1.53590769      -0.02245035
O       10.26000003      12.20410003      10.79770001      -0.98780625      -0.75998182      -1.88292001
O        3.49223995       0.58492603       5.77807984      -0.66870815       0.05603893       0.01621985
O        7.56774006       8.65479004       3.73938990       0.26675470       0.18792436       0.49474082
O        8.17266001      10.67049994       9.42927997      -0.15380104      -0.10355468       0.20097046
O        1.90707999       9.26261003       8.08823985      -0.87399091      -0.48678794       0.23376400
O        6.38777998      10.61780005       1.92468005      -1.17938278       0.95644345      -0.55652906
O        1.90337004       5.76021004      13.93949989       0.05902845       0.15507311      -0.48152046
O        2.60189005       4.39786000       9.18672016      -0.32282675      -0.55195555      -0.43970067
O        3.61485001      11.39210001       1.22702009      -0.01441165       0.22150330      -0.65564766
O        2.01156999      11.79389995      10.82569997      -0.23964696       0.95870453      -1.47167475
O        8.58564005       0.81867501       9.21793001       0.23047496      -0.36738459      -1.26499064
O        8.09502006      11.29379996       4.18529001       0.70966765       1.50305426      -0.07999594
O        8.93385004       4.92891000       7.66596006      -0.09893904       0.42073407      -0.71242465
O        0.40658198       3.18922002      13.79270007      -1.25322462       0.27287239       0.66796362
O        8.01145004      11.00189996       6.51691995      -0.68548452      -0.00149857       0.85930957
O        3.89895003      11.87110002       8.62014007      -0.87016502      -2.09664070      -0.25039537
O        6.77971995       5.92220003       3.97776999      -0.45902744      -0.74047843       0.36548716
O        3.49198999       8.11796999      12.81009996       0.05331872       0.48504913      -0.85972441
O       11.86480003       8.62836002       7.84813015      -0.39774358      -0.13177669       0.37704959
O       12.13120002       2.55859994       5.78355007       0.99216142       0.99587764       0.00757726
O       10.21909999       2.91277995       9.33917998       0.08781687      -0.14758708      -0.22873282
O       11.49419995       6.90505997      10.28930002       1.12446574       0.06882015       1.27296681
O        6.80648999       4.79764996      12.08629986      -0.09361876       0.13937981       0.12747349
O       11.48920001       1.09331995       7.57467984       0.85931350      -0.99156547       0.73967980
O        5.98376997       9.04485996       8.78873015       0.76692465       0.45025933       0.81368442
O        9.81264000      12.68108981      13.44640004      -0.36250153       0.24977472       0.94420216
O        7.55529006      12.26090001      11.73000010      -1.39438497       0.52794412       0.43204577
O        6.36669005       0.97242004       4.58717998       0.65573495      -0.92999338       0.75784006
O        6.83984000       3.15570006       2.81466985       0.47484248       0.65718762       1.16811783
O        4.47782005       0.47960500      12.24089994       0.49820603      -1.02349475      -1.42450964
O       10.63820002       6.51706006       8.02621999      -0.13472924      -0.39950468      -0.47514042
O        7.70877000       2.62547995      10.83869985      -0.04878170       0.58058821       0.54763696
O        5.20325996      10.94650000      10.78150006      -0.37063466       0.14051539      -0.41096659
O        0.90178798       6.48456997      11.82030002       1.21388253      -0.50061740      -0.02902010
O        6.63617006       4.71753001       6.29994990      -0.80615607      -0.41696410      -0.41429011
O        3.46807000       3.25887005      13.52489994       0.00502305       1.08743191       0.12639862
Al       3.55265995       5.14686004      13.39989987       0.00010715      -1.54490434       0.49941755
Al       2.28547994      10.79500002       1.99824995       0.10854247      -1.52506220      -0.26533095
Al       9.97379006       0.62101694       3.18127986       0.66168072       0.56831057      -1.11142393
Al       9.18504005       8.16639005       4.41913012      -0.57961099       0.52584672       0.18789094
Al       5.18150996       7.61571006      13.23850013      -0.35494819      -0.72673430      -0.56775909
Al       6.83053999      10.31650006       3.51812986      -0.67988863      -1.15437528       0.62657802
Al      10.40300001       4.71715005       8.62174992      -1.48447205       0.09434500       2.07893271
Al       0.24788495       3.28986001       4.34669007       0.17668722      -1.28271957      -0.73305469
Al       3.55570004       4.17078004       5.35946999       0.31404147      -0.43881437       0.34280956
Al       7.23650006       3.18251005      12.48910012       1.94587082      -0.28957972       0.05561980
Al       0.92338304      11.06319997       5.01165009       1.61986770       2.43009541       0.08982022
Al       5.38674999       7.99918997       7.38445002       0.41720762       0.74815074       0.85211186
Al       0.23213003       9.71250997       8.62678987       1.43707178       0.88672445      -0.56759873
Al      12.05849997      12.05619997       7.45287002      -0.27149967       0.38912684       0.84000933
Al       1.75677001       0.86483004       6.30834992       1.21456162       0.02451566      -1.07691858
Al       1.90665995       2.26876003      13.61339990       0.49780159       0.80676229       0.43027580
Al       4.27679994      11.40740005       6.06177987       0.71927317       0.31935696      -0.65092829
Al       4.49965999       1.73453002      13.42119997       0.68367582       1.54438219       1.55678567
Al       6.56921004       7.34618997       2.80672988       0.71188271      -0.24996558       0.11755591
Al       6.75501000       1.39614005       2.82557005      -1.54279316       0.01010484      -0.76906094
Al       9.48825995      11.20490003       5.39321994      -0.45790242      -0.07125313       0.50439801
Al       2.04661005       5.33189002      10.58120016      -0.24199964      -1.31595219       2.81307035
Al       2.74008000       9.20893995       6.55240016       0.99847774       1.06880716      -1.40729603
Al       7.59037006       8.91461006       9.56599008      -0.63472086       0.34753947       0.04103725
O        8.14975995       8.00652006      10.90129985      -0.41716412       0.00934295      -0.68088387
O        9.14735004       6.69411998      12.62810002      -0.73782527      -1.49079817      -1.11797225
O       10.36460007       2.30705999       3.79712009      -0.52770120       0.57557453      -0.63761649
O       12.24499995      11.49910004      12.04759995       1.38634889      -1.27532521      -0.09840463
O       11.88989999       4.33496000       7.76660000       1.08481753       1.10641798      -0.49659898
O       11.17990005       7.72681997      12.60999998       0.37862785       1.04767792      -0.46880214
O        8.34558995       3.68344997       4.81036006      -0.81661884      -0.09736078       0.08841791
O       10.55789994       9.29320006      10.42569994      -0.55594357       0.26905887       0.07929542
O        5.56516999       9.42535003      12.90420004      -0.93618850       0.25246945      -0.23364347
O        9.97184000       4.93636005      10.47779991       0.05512161       0.95556197       0.17123667
O        5.82507994       6.89797996      11.52730015      -2.47214222      -0.16789844      -1.20256515
O        6.92057002       6.97474003       7.51032013       0.86328221       0.58386169       0.48618584
O       12.29410004       4.86398998       4.15284005      -1.12761864       0.92981165       0.96152241
O        3.65009996       5.22307999      11.55989997      -0.97693584       0.04576832       0.29883182
O        0.56838600       0.17813811       5.15285011      -0.39191537      -1.63606667      -0.05619739
O       11.57559997       1.85819996      11.98490015       0.34456141      -0.35043145      -0.15388734
O        6.25522994       2.13092995      13.33709995      -1.76512819      -0.39422168       0.66256141
O        1.64337994       2.54172001       7.07130999       0.19267160      -0.38770434       0.63847078
O        7.28819006      10.90879995      14.49130010       0.22802567       0.57948463       0.22057781
O       10.24850001      11.32690001       7.18698993       2.10578155       0.52767077       0.41207886
O        1.93809997       6.59941006       9.42796003      -0.29041940       1.91057789      -0.75892794
O        8.88102002       9.95614995      12.78110005      -0.32627780      -1.93177977      -0.38226220
O        2.91050004       0.92340505      14.15570002       0.77135988      -0.97922278      -0.39621993
O        9.35220006       3.21753001      12.63420011       0.30644537       0.00147350       0.63786269
O        2.62524996      10.83240000       5.62665006      -0.79242466      -0.94991151       0.38276831
O        0.02833810      10.56840000       6.70316015      -0.11438743       0.40484911      -1.52497342
O        0.51156706       2.41869997       9.45334006       0.31117964       0.09736582      -2.34320786
O        0.69477699       2.08455994       3.19764995      -0.07945733       0.61524292      -0.01184783
O        7.21022002       3.04702996       7.99190987      -0.73004656      -1.75568328       1.23738978
O        3.12012994       1.37323999       9.17784994      -0.40374719      -0.09863408      -0.16608413
O       11.56910002       4.97722995      12.91429990      -0.98197060      -0.85136649      -0.28659513
O        8.69320003       7.05004003       5.70174997      -0.42992526       0.06423697      -0.55986730
O       10.22030005       9.45385999       5.20034990      -0.05799039       0.72581932      -0.33624463
O        9.30404001       4.39156994       1.98279014       0.27098094       1.58978040       1.12268724
O        3.82518005       7.31353998       7.96568008      -1.20023098      -0.06988552       0.72614584
O        1.33466997      11.78700006       2.97930990      -0.73771104      -0.29685497       1.38482961
Al       7.18204995       9.39399995      13.64929992       0.22188351       1.13514985      -0.46970391
Al       1.93995005       7.43848999      13.09169999       0.85499933      -0.90413034       0.33810272
Al       1.30697998      10.42690003      11.92649984      -2.49501957      -0.57303656      -0.92406670
Al       2.79196997      12.62586298      12.42250004      -0.77501778       0.30076939      -0.12668105
Al       8.44914995      11.61769994      13.40679998      -0.09411568      -0.17295432      -0.50215014
Al       1.54542004       8.42148998       3.68319986      -0.79829368       1.20282960      -1.79780215
Al      11.71410005       6.51021996       4.06407014       1.51940631      -1.02502407       0.21508945
Al       2.18181995       2.81774005       8.75887002       0.76757564      -2.22910569       0.40312492
Al       2.27290999      12.44930006       9.15833998      -0.38634993       0.57486537       0.69525827
Al       8.97363996      10.35330001       7.89884997      -0.26245883       1.73638462      -1.86342774
Al       0.24669405       0.45831396       3.17484012      -0.72911444      -0.14888222      -0.30416414
Al      10.68150004       6.10516000      11.76430009      -1.31342002      -0.17133047       0.54156745
Al      10.97769998       0.05641086      12.24319987       1.29080047       0.78506522       1.04229631
Al       7.15440995       1.92280006       9.36829016       0.11844522       0.31974349      -1.24395401
Al       4.13244001       9.82376999      11.88720015       0.78388814      -0.75067705       1.41087062
Al       2.79141001       5.73663006       7.98686992       0.45805697       0.08992512      -1.37696438
Al       8.55303000      12.15329996      10.32009989       0.76632464      -0.22768969       0.05730839
Al       4.10543006       7.30578006       4.37873004       1.75694288      -0.08780959       1.18305473
Al       9.54944000       8.40815997      11.99510013       0.55610665       1.30363282       1.17953121
Al       5.78746003      12.55782082      11.19729987       0.38132620      -1.30871382       1.57135821
Al       6.57484996       4.03438000       4.41523998       0.54076934       1.02324657      -1.37278910
Al       8.76715000       3.10705994       3.07655999       0.75399792       0.18422237      -0.05383045
Al       8.20966998       3.60587998       6.61920998       0.34220129       1.24301175       0.11857755
Al      12.65719996       2.74003001       7.54914995      -1.88598209      -1.43011529      -0.50413778
O       12.29180004      11.33390001       9.11286003      -0.24737918      -0.78031877      -0.05508021
O        5.32998995       7.57584000       5.69135988       0.42001953      -0.96333000      -0.89292775
O        3.55040994       9.23626003      10.23910014       0.42787014       0.53658178       0.04363793
O        0.39882905       9.46384004       4.60953009      -0.80643357      -1.15423711      -0.67200919
O        2.71514999       8.23717998       5.01357013       0.06379518      -0.20790090       0.64370058
O        1.09995004       3.96612998      11.49309996       0.14040564       1.63299267      -0.46048104
O        5.60003998      12.58450004       6.83078016       0.42935463      -0.39282964      -0.15490235
O        5.82122994       0.78636198       9.75580991       0.44876333       1.15709053      -1.78341018
O        4.85672005       2.26794999       7.28080011       0.29034181       0.32295873       1.45983013
O        4.89102003       7.72742000       2.96221995       0.48151257       0.19117923      -1.07476414
O        6.99443998       7.65458002      13.62309991       0.20972301      -0.24979027       1.43560000
O        0.77132704       6.83253000       3.70348988       0.34074953       1.75974899      -0.63458306
O       11.40179995       0.01403816       2.45335991       0.74505115      -0.24018392       0.48003960
O        0.47030894       9.24246995      10.37829995       0.51271611       0.69060160       0.54143176
O       10.11480003       0.10159200       4.88496000       0.09862616      -1.15209553       1.39066245
O        5.54322995      10.87519998       4.84945001       0.92497564       0.76246171      -0.50314795
O        9.09468005       8.59928005       8.28993005      -0.90452240      -1.23047151       0.02322091
O        1.74432002       1.48911006      12.05729996      -0.83163637      -1.29995569      -1.15111670
O        4.97523994       3.25572998       4.81919985      -0.99676443      -0.47731150       0.07441514
O        3.96477003       4.73146996       7.03848995      -0.33816932      -0.08326388      -0.38740601
O       10.27160004       7.14383000       3.28527987      -0.49993910      -0.13951070       0.12780881
O        1.23588997      12.59390003       7.67468009       0.30084889       0.01865645       1.13550139
O        3.36044997       5.71864001       4.57546013       0.50334093       1.75894679      -0.68197974
O        4.63128994       6.18579005      14.15550010       0.86180761       0.17480177      -0.04460056
O        1.85516000       3.92117005       4.84813988       0.36748630       0.29021771       0.46608792
O       11.71580002       7.26750999       5.70333005       0.47900902      -1.18539779      -0.19693463
O        8.45880994       1.22759006       2.53325993       0.70157962       0.00253338       0.09773257
O        1.25771998       5.92729996       6.70345005       1.01206087       0.37147156       0.06363349
O        5.45451001       4.41713000       9.45866009      -0.13306917       0.55410782       1.32344482
O        4.36857002       9.70841001       7.11744991       0.00794774       0.70970417       0.47146748
O        0.95597897       8.79089000      12.79140016      -0.99535362       2.12277780      -0.32042677
O        7.89823997       7.05686003       1.71194994      -0.51270065       0.00691962      -0.33893492
O        2.79537005      10.78260002      12.75269991       1.32484163       0.90875221       0.97026416
O        5.56277000       0.73491698       1.75064986       0.85069721       1.06416395       0.67424208
O        2.05449006       9.08068005       2.13316991      -0.57434485       0.28199689       1.57311631
O        9.40104002       2.23505996       6.68522993       0.18368294      -0.32527280       0.67265068
180
Lattice="12.72056184 0.0 0.0 0.0 12.72056184 0.0 0.0 0.0 32.72056184" Properties=species:S:1:pos:R:3:forces:R:3 step=0 confid=1 wdir=cand1 selection=->scf energy=-1297.7728629 free_energy=-1297.7728629 stress="0.01720770364645181 -0.001957874599639146 -0.00137758014400306 -0.001957874599639146 0.01452819049898347 -0.002128163372086574 -0.00137758014400306 -0.002128163372086574 0.015853613134934594" pbc="T T T"
Al       0.37566694       4.78982999      13.07979985       0.12855094       0.53632725       0.42820293
Al       4.90946001      10.54779994       9.17649008       1.43341446       0.35536817       0.53610191
Al       5.17523999      12.08419996       1.45113009       0.02149882       1.58769828      -0.82915208
Al       4.80249001       0.91039395       8.32460992       0.89154932      -0.24759808      -1.07434968
Al       8.79094000       6.98952005       7.57931994      -0.77692567      -0.60235844      -1.45353810
Al      11.79219997       9.11795995       5.25986009      -0.75549383       2.09619983       1.94841620
Al       9.66587003       0.54112405       7.52924996       0.72929678       1.68788072      -0.00278265
Al       5.45214004       3.98792005       7.82619985       2.03140133      -1.06721209      -1.62535074
Al       6.74928003       6.45971005       5.85487991       2.88576016      -2.26728910       0.12595833
Al      10.88139998       2.89229997      13.12950009       0.07229184      -0.50620097      -0.11596453
Al       7.37439998       6.55206998      12.05359992       0.14915110       2.75954930       0.87812295
Al       9.29906996       6.10550995       2.19298997       0.06476077      -1.13143874      -0.60732493
Al      12.61919995       6.41442001       7.24145985      -0.13190401      -0.19026029       0.47374529
Al       6.62681994      12.12340003       5.22800008       0.97183350       1.71280111       0.83777740
Al       2.92497006       8.17013002       9.45423006      -0.55083469       0.15725422       0.39764464
Al       1.61171999       5.73698000       4.64824997       0.27981920      -1.70518998       1.26018746
Al      10.02509997       2.27496004       5.21437000      -0.13178625       1.59190538       0.39296007
Al       9.85808001       2.91673998      10.53519995       0.74587663       0.26416834       0.02145799
Al       4.89381003       1.50424002       5.52642993       2.67451345       2.19819549       0.00691387
Al      11.14149998       7.46555998       9.69984008      -0.09160282       2.38127657       1.94714435
Al       0.28001099       2.49991999      11.07549987       0.42225902      -0.46531620      -0.46752935
Al      11.56520002      10.35959999      10.41320003      -1.25187611       0.82569068       2.11991733
Al      12.38810003       8.25739994      12.45639985      -0.27172985      -0.34535239       0.21029033
Al       5.28576005       5.08355998      10.96460007      -0.29979380      -0.16775987       0.40864132
O       10.45110001      11.61170003      11.20270007       1.33572761      -0.82720781      -0.45692388
O        3.35126000       0.71392296       5.46017014      -1.56776625      -1.53285096       0.73355622
O        7.58308996       8.68842003       3.69622984      -0.34553996      -0.45542307      -0.88056684
O        8.34488001      10.76370006       9.40151985       0.01463474      -0.67374843      -0.50481214
O        1.98957003       8.97637997       7.99886986      -0.70230114       0.64959221       0.69421344
O        5.97203996      10.77000005       2.07079994       0.50515724      -0.60488323      -0.41889854
O        1.82574001       4.13952994      14.01900006       0.14388311      -0.59477007      -0.90432638
O        2.27636006       4.39957003       8.85169989       0.53515643      -0.04724381      -0.55553393
O        3.61243005      11.76119996       0.81113389      -1.11743113      -0.45308900       1.20533939
O        1.66918996      12.24220002      10.49160013       0.50825972      -0.09229239       0.24563644
O        8.79811999       0.52546796       9.11626984       0.96805708      -0.10635267      -0.75559113
O        7.87730002      11.43250001       3.99893987       0.42732143      -0.56756186       1.05011040
O        9.35230004       5.09396006       7.18278992      -0.09780449       0.28189906       1.43300312
O       12.41789999       2.60083997      13.79480007       2.69331962      -0.45383250       0.71439929
O        8.00119994      11.64340006       6.53485997      -0.26742822      -0.64064565      -0.73689387
O        4.02087000      11.90169997       8.35194991      -1.21663566       0.18353577       0.31024961
O        6.76437005       5.81985001       3.98661010      -0.46946568       1.50852344      -0.37208128
O        3.12253005       8.37532006      12.03389985       0.79629957       0.13202985      -0.96282871
O       12.40810006       7.80735003       8.53066995      -0.20408055      -0.49296223      -1.13565666
O       11.52860004       2.91282002       6.06337991      -0.32644374      -0.72172682      -0.14443253
O       10.47200002       3.02052997       8.78756006      -1.30970626       0.37493484       0.86488257
O       11.68220006       6.89913003      11.28669997      -0.86387633       0.04141066       0.85004627
O        6.94437999       4.83016995      11.93820006       0.16290966      -2.10184710      -0.12280453
O       11.48130003       0.80773100       7.75166012      -0.59537782       0.36682572       0.08755263
O        6.20035000       9.19761000       8.94907006      -1.74074283       0.55342554      -0.18695895
O        9.71076001      12.15399997      13.82440008       0.35664759      -0.56876967       0.12083081
O        7.77788005      12.52020002      11.81239997      -0.50210941      -1.05270866      -1.01910292
O        6.40101000       1.11029999       4.35441998      -0.32587372      -1.99756582       1.07362587
O        7.25853996       3.26015000       2.77475992       0.07842426      -0.33506224      -0.01494165
O        4.30350002       0.71740801      11.84370013      -1.48785040       0.26740809       0.58449907
O       10.00479999       6.60251998       8.82882985      -0.51532849       0.50539958      -0.06158298
O        8.12550006       2.43091005      10.73490009       1.20459623       0.89680138      -0.62180439
O        5.28754004      11.25010000      10.93199992       0.05174457      -0.39774853      -0.77747521
O        0.92623804       6.53847996      12.89110004      -1.92147951      -0.91830793       0.15645040
O        6.69362006       4.69775004       6.31706995       0.06385455      -0.03185745      -0.36118141
O        4.62589999       3.52414999      13.68590015       0.91715714       0.29510819       0.26308197
Al       3.46655002       4.66009006      13.36580013      -1.50917918       2.73109966      -0.18040913
Al       2.55994005      10.91969994       1.89994004       0.27329435      -1.46461479      -0.61456147
Al      10.26790001       0.78245601       3.06571999       0.37067723       0.64031386      -1.90356491
Al       9.00171996       8.10152994       4.46333986       1.64659040       0.95002484       0.01474009
Al       4.92261994       7.63544003      12.86680011      -2.30519762       0.45174549       0.69072970
Al       6.63257994      10.19529995       3.51787006      -1.07156730       0.43593798      -0.11971420
Al      10.41070002       4.87196997       8.66074989      -0.48391329      -0.83436313      -0.20113761
Al       0.42133299       3.23534999       5.23471990       0.57080765       0.67170447       0.32284394
Al       3.86650000       4.40797997       5.04547006       0.00921906      -0.71392862       1.30673330
Al       7.52661995       3.01525997      12.30289984       0.69261902      -0.35456359       0.95583682
Al       1.20405995      10.84220005       4.77302001      -0.00077940       1.02042674       1.80307588
Al       5.47033998       8.15959994       7.56580995       1.78472696      -0.16068188       0.30523222
Al       0.28614599       9.42589002       8.21654012       1.06965187      -0.08060957      -1.58525518
Al      12.24719997      11.94960001       7.42446988      -0.57697089      -0.07832796      -1.02947508
Al       1.65846004       0.84381605       6.01608986      -1.31638899       0.75150327       0.08370515
Al       1.53658001       2.28170995      13.80480013      -1.03925483       0.35421735      -1.18764097
Al       4.11297997      11.53700006       6.17515008       2.39523931       0.31973599       0.13001254
Al       4.55208002       1.87989004      13.26639997      -0.01075333      -1.12888628      -0.62429265
Al       6.72035996       7.25894002       2.72066007      -0.26349901      -0.19826150       0.58999940
Al       6.93884006       1.43037999       2.62529992       0.83883505       1.41159090       0.78558407
Al       9.37591996      11.44850006       5.17111996      -1.45735858       0.00265634      -0.04070280
Al       2.07549997       5.07453996      10.46070014       0.34813155       0.81107306       1.10879860
Al       3.07934006       9.04309995       6.60084001      -0.34482340       0.50767657      -0.54208951
Al       7.78410002       9.02147995       9.53886015       1.59097650      -0.41808126       0.31588410
O        8.16037996       7.87753000      10.83749999      -1.28256985      -0.22607506      -0.14860750
O        9.27814998       6.81477006      12.69459998      -1.24046294      -0.58243854       0.06314787
O       10.55500004       2.50871995       3.53836000      -0.26247464      -0.10134845      -0.63379769
O       12.62970001      11.69609994      13.26219996       0.79340799      -0.90477535      -0.39063554
O       12.07360004       4.90827000       8.02132009       0.35184898       1.07680814      -0.29379192
O       10.81619998       9.34104998      12.96680004       1.11749026      -1.09165807      -0.36672504
O        8.68450006       3.74624006       4.89991984      -0.32123157      -1.01186722       0.23532644
O       10.39169995       9.03433001      10.29919996       0.70426664      -0.81735765      -0.30237571
O        4.91771006       9.50187999      13.21419988       0.66471087      -1.00419326      -0.41535437
O       10.05970003       4.72485006      10.61319988      -0.45694481      -0.70299852      -0.84918931
O        5.53999994       6.77273000      11.46289987       0.46869649      -0.27598771      -1.11230593
O        6.94455999       7.06092997       7.65727995      -0.43337891      -0.58776583      -0.02110050
O       12.57849886       4.93166998       4.75920997       0.02005795       0.56061728      -0.14989992