40
Lattice="8.413 0.0 0.0 0.0 8.068 0.0 0.0 0.0 16.34645555" Properties=species:S:1:pos:R:3:forces:R:3 step=0 confid=0 wdir=cand0 energy=-283.17080098 pbc="T T T"
Al       0.23341498       4.25538003       0.32401503       1.83683480       1.19101345       0.08878097
Al       4.83636003       7.77474998       0.13517097      -0.43898867      -1.25315973       1.14779927
O        4.50915002       7.09941998       3.66954993       0.95971929       0.99621173      -1.63151554
O        7.57876002       6.38289001       4.29857004      -0.31798463      -0.08777696      -1.92644491
O        2.76918001       5.79728004       1.78892994       0.75973700      -1.21673106       0.39032859
O        7.03131997       4.13298000      16.05020007       2.12107723      -1.20672629      -0.66392759
Al       5.57351003       3.59989997       3.47658999      -0.47924048      -0.54163120      -0.79232267
Al       0.62398699       7.39027001       4.07736000       1.45426679       0.51118244       0.64004492
O        5.82628997       1.11865999      16.20420003       1.37227320       0.28193320       0.22056641
O        1.61616002       2.97835997       0.26929004      -1.81752678       2.89747630      -0.77482309
O        8.13623998       1.71377003       2.10695007       0.51050116       2.11868051      -0.03384427
O        3.39422998       1.31844997       4.91538000       0.95211191      -0.66452783      -0.61187549
Al       0.33699003       4.83850998       3.82615993      -0.40795732       2.53381830       0.17546154
Al       3.64304000       0.70467897       3.24162996      -0.40662978      -0.19929043       1.11583735
O        3.35166996       0.78976200       0.65049494       1.99218714      -0.89330275      -0.16594306
O        2.55782004       2.29942002       2.63183999       0.14783826      -0.66609323       0.03534274
O        5.19680003       1.91325004       2.48617002       0.11717993       0.94362143       1.14779298
O        1.08771004       3.41489000       4.64708007       0.81862239      -0.14497366      -1.01703182
Al       3.08239002       4.85448002       0.27605698      -3.58836107       2.50408436       0.22550166
Al       7.45396999       0.71524296       0.92925006      -1.66086247      -1.94837967      -1.33372212
O        1.81508002       5.84759999       4.31391004      -1.28859284       1.13320902      -0.29956828
O        5.49349003       4.98634002       2.34506006       0.62409521      -0.04045069      -1.38395645
O        8.30139802       5.49604996       1.85120994       2.26712682      -1.86181443       0.59899729
O        4.58229003       6.10185002      16.23630006       0.02509207      -0.85958877      -0.99142085
Al       4.64727003       2.07454001       0.79257898      -1.15043868       0.35567314       0.80991945
Al       8.39225001       2.30239001       3.75729999      -0.52652999      -1.43330622       1.61065402
Al       6.25961996       6.54418998       2.93471006       0.14274090      -0.61595351       1.38169419
O        0.24594202       0.86100897       4.67109007      -0.84512870       0.89536573       0.41968117
O        6.63343000       7.19459003       1.33852003      -1.96546130       2.18455995      -0.13960637
Al       3.43919999       5.66318003       3.50409993      -1.44287915       1.45310872      -0.81189814
Al       1.25574003       6.71183003       1.17084005      -0.46736182       0.15384056       0.99339068
Al       1.58962003       1.55566999       1.21831000       0.24038355      -2.04067309       1.38961858
O        0.56274204       0.14195799       0.27263697       0.73628332       0.63557106       0.35532988
O        1.59205997       7.92888001       2.65269006       0.94225053      -0.25492708      -1.39436556
Al       2.72238000       2.75284000       4.36564004      -0.21575888       2.05476536       0.15927106
O        4.10541999       4.25824998       4.29947008      -0.59473924      -2.67023030       0.39225229
O        1.41180000       5.63499004      16.07050008       0.92802408      -1.80777082      -0.45972893
Al       5.75901003       4.77174002       0.48140900      -2.45829936       2.49859961       1.66535024
O        4.27460004       3.68843998       0.32737897       2.18342219      -1.52214316      -0.48521136
O        7.26719996       3.86858002       3.88520005      -1.05902660      -3.41326399      -0.04640874
40
Lattice="8.413 0.0 0.0 0.0 8.068 0.0 0.0 0.0 16.34645555" Properties=species:S:1:pos:R:3:forces:R:3 step=0 confid=0 wdir=cand1 energy=-284.0277892 pbc="T T T"
Al       0.43374803       5.51055001       0.22023400       0.12597296      -2.18914940      -0.59092214
Al       5.46861002       7.50150998      16.31133290      -2.12739149      -0.28337662       0.77226990
O        4.57633001       6.88809002       3.91659996      -0.28780366      -0.18306826       0.86656024
O        7.48581000       6.05349003       4.06685004       0.76629067      -2.66449437      -0.02528951
O        3.32268002       5.72644001       1.72377003      -0.75070802      -0.80605299      -0.11935183
O        7.27120001       4.77695001      16.21480005       0.25138793       0.07807517       0.53510719
Al       5.41368002       3.37614996       3.45288992      -2.28034194       0.85984001       0.02358870
Al       0.70740004       7.02528999       3.43096001       0.04675198      -0.97195960       0.81137699
O        6.82028003       0.27823402      15.67359997      -0.05770280       0.47265387      -0.71947208
O        1.36450001       3.92066001       0.37058199      -0.16525624       1.27278596      -0.66433419
O        7.71887997       2.12955998       2.03237999      -0.71238802      -0.90851339       0.58157230
O        3.25023997       1.33984001       5.04291995       0.02157092       0.27825847       0.83832113
Al       8.29173998       4.37829996       4.43905001      -0.40499276       3.18427621      -0.99115569
Al       3.85241997       0.44457197       3.76773998       0.57628311      -1.68656402      -0.56583701
O        3.84647997       0.32376303       0.47201992      -0.31581135      -0.20530440      -0.36672929
O        2.40494001       2.74904998       2.20878996       0.53278900      -2.08534779       2.31783125
O        4.76218000       1.82085998       2.76512997       0.83498674      -0.41102509       1.10336183
O        0.77263200       2.91448997       4.51073003       1.44350353      -1.06267319      -0.26251594
Al       3.21295002       4.86929997       0.10652200      -2.87871819       3.15680932       1.29879736
Al       7.71385000       0.47106503       0.76947703      -0.48808094      -0.91770994       1.21137397
O        1.52206002       5.40266004       4.03223005      -0.91357051       1.03064550      -0.13676632
O        5.78938997       4.66279999       2.33384002      -0.14321350       0.33421991      -0.57417704
O        0.48216401       6.76416997       1.57013999      -1.17115208       0.51520355       1.05363931
O        4.82608001       5.93465000      15.96229995      -0.55438711      -3.08796705       0.07250782
Al       3.85422001       1.84282003       1.24640007      -1.46126052       2.38823286       0.05016837
Al       7.85756003       1.80468001       3.81707996       0.77496835      -0.26019593       1.08863648
Al       6.08557998       6.60093997       3.16871006       0.75462749      -1.62401579      -2.41680979
O        8.22431004       0.19124403       4.35308007       0.13074653       1.86973729      -1.48089123
O        6.21272001       7.57836002       1.61519997       1.37839147      -0.18319242       1.94870787
Al       3.25835002       5.39052004       3.41659000      -0.61112658       2.43549847      -0.67708341
Al       2.08810997       7.54652998       1.08162993       2.39925091      -0.89416780      -1.89261347
Al       0.83549503       2.55967998       1.33337008       2.83175524       1.16373396      -1.42964288
O        0.98899602       0.97707498       0.54163000       0.73778118      -0.62261193       0.05690447
O        2.51445001       7.84882003       2.85824003      -2.87708434       0.31085294      -0.23693521
Al       2.60015998       2.65747003       4.21839999      -1.28026296       2.09347856      -1.10719870
O        3.81090997       4.08657004       4.39211002       1.18367224      -2.42826618      -0.76259112
O        1.96724999       6.25983001      15.96359998      -0.22369673       0.23850745      -0.06217549
Al       5.66665002       4.39496998       0.43739993       1.81723657       3.13459057       0.40092714
O        4.17643000       3.38283003       0.31283193       1.68658783      -0.86341596      -0.55765795
O        6.78351001       3.18533999       4.44190001       1.41039509      -0.47832794       0.60849796
40
Lattice="8.413 0.0 0.0 0.0 8.068 0.0 0.0 0.0 16.34645555" Properties=species:S:1:pos:R:3:forces:R:3 step=0 confid=0 wdir=cand2 energy=-283.82420015 pbc="T T T"
Al       0.47061498       5.49018001       0.07753434      -0.05387599      -1.51882722       0.39689695
Al       5.51561000       7.46052002      16.13773763      -2.43654568      -0.28907526       3.70753502
O        4.40281004       6.83006004       4.00941007       0.65891389      -0.41817756      -0.13702525
O        7.19485001       5.80078002       4.40525992       1.01887000      -1.03287080      -0.55571280
O        3.00845002       5.93343996       1.87239004       0.08960817      -0.86486521      -2.28673310
O        7.29641999       4.69365001      16.30091759       1.03523250       1.19424702       0.12003881
Al       5.26111002       3.33433997       3.64522003       0.11587350       0.64072479       0.90455993
Al       0.65173601       7.06837996       3.38385998      -1.80698119       2.49449122      -1.04675329
O        6.84976003       0.28938399      15.74209995       1.62435408       0.47797484      -1.23002666
O        1.50730000       3.90377998      16.30193336       0.14445331       0.60236999       1.08140399
O        8.08280001       2.24194004       1.90098996      -0.77981623      -1.39533190      -0.96232777
O        3.37199998       1.57812000       5.22978004       0.03359479      -1.13476660      -1.56453449
Al       8.25227704       4.31414000       4.55148992       0.22478792       2.61082965      -1.11541583
Al       3.69433002       0.36356401       3.96272001       0.77351396       0.77539255       1.21420699
O        4.19931000       0.36311502       0.57053200      -2.82379896       0.23458636      -0.38558146
O        2.49618001       2.70175004       2.21936007      -0.31237020      -0.57849716       0.39009751
O        4.72752003       1.69986999       2.94417008       1.47610969       0.57910438       1.74752413
O        0.86778698       2.78926000       4.47727995      -0.93885483       0.93136354      -0.22862426
Al       3.17541004       4.88863001       0.12380004      -1.59493669       0.30207111       0.87850145
Al       7.87400004       0.30535202       0.77812103       0.18259491      -0.32124044       1.47643952
O        1.30995996       5.63035997       3.93117005       1.58529556      -2.92657230       1.73793375
O        5.62626997       4.61430002       2.47785000      -0.06951358       1.09346936      -0.72992410
O        0.30811704       6.80928002       1.51209994       0.84622537       0.37188640      -0.55483727
O        4.75429003       5.82412001      16.03400008      -0.26961155       0.32524011      -0.56418822
Al       3.97329997       1.91292998       1.41479995      -0.40787812       0.23151430      -1.85022205
Al       7.81957996       1.83722003       3.58529000       1.20758037      -0.32804160       0.92694965
Al       6.09540998       6.53399001       3.16804002       0.07373548      -1.09369059       2.22157802
O        7.62286997       0.10536397       3.71600999       1.38099393       0.61629159       0.20496989
O        6.15840997       7.41820998       1.72606997       0.90683373      -0.21781215      -2.53288289
Al       3.17294999       5.49464000       3.54113005      -0.50706012       1.92383309      -0.05161631
Al       2.32691003       7.45945997       0.96745206       0.54126300       0.59168266       0.06011030
Al       1.16385997       2.43563997       1.00604996       0.90596568       2.36093987      -0.04417157
O        1.34267997       0.88728201       0.26895494      -0.92414254      -1.32401662       0.77854246
O        2.19855002       0.13216998       3.08759993      -1.62235388      -1.16866182      -0.91339665
Al       2.58878997       2.67714998       4.09663999      -0.61045403      -0.12462289       0.65097726
O        3.69041999       4.10815000       4.44283993       0.81601615      -1.32112456      -1.19295910
O        2.00164998       6.35226001      15.89920002      -0.06578657      -0.80186420      -0.03389675
Al       5.73320997       4.73354998       0.65042301       0.29358581      -2.02019452       0.85833330
O        4.23988001       3.36211003       0.45727199       1.50816125       2.16657155      -0.81015106
O        6.91337997       3.16804002       4.40951997      -2.21958291      -1.64433098      -0.56561805
40
Lattice="8.413 0.0 0.0 0.0 8.068 0.0 0.0 0.0 16.34645555" Properties=species:S:1:pos:R:3:forces:R:3 step=0 confid=0 wdir=cand3 energy=-282.96977053 pbc="T T T"
Al       0.05731373       4.46509002       0.44940297       2.58375816      -0.89605135      -0.80342847
Al       5.34725998       7.71043003       0.18435500      -1.69007378      -0.93069170      -0.81965014
O        4.58002004       7.15536002       3.16216004       0.75210520      -0.26440099       1.85777365
O        7.38476003       5.89164998       4.33262003      -1.44847693       1.12469198      -0.30909553
O        2.65720996       5.32797997       1.84098000       0.35931239       1.19942646       1.72174271
O        7.02414999       4.10485003      16.09649994      -2.36708077      -0.13933470       0.26377870
Al       5.20940002       3.55190997       3.42864993       1.36652639      -0.76359324      -1.92612898
Al       1.44784003       0.12398999       4.31798996       1.71886719      -2.94670485      -0.98103964
O        6.39792001       1.24655997      16.29129999       0.16329350      -1.23152529      -0.31291532
O        1.30101997       3.04506998       0.21981994       0.90103698       0.81663513       0.93840565
O        8.23915999       2.02996003       2.13909995      -0.15829223      -0.68976788       2.13910393
O        2.78199999       1.21248002       4.62024001       1.02204834       0.85247570       0.28657448
Al       0.52444202       5.26601999       4.13591006      -2.19578648       0.35102245      -1.19866590
Al       3.97621003       0.79169202       2.99479996      -4.23957161      -2.15421570      -0.71695749
O        3.79441999       0.44535901       0.56776602       1.93909749       2.39939572       0.36181235
O        2.85400004       2.52801002       2.36878008      -2.10844741      -1.88422663       0.40540967
O        5.15683997       1.79994998       2.43074001       3.20772883       3.03392484      -0.91109467
O        0.66708999       3.57216001       4.41407001       1.93317821      -2.17453720      -0.22165695
Al       2.69109003       4.39338002       0.30242692      -1.58932911      -1.07482539       0.51653501
Al       7.61241000       0.70109202       1.19106994      -0.42205658      -0.33643741      -2.14033964
O        1.76851002       6.36526998       4.58608997       2.03357631      -0.32608928       0.00657341
O        5.51454996       4.84038998       2.21670001       0.95225899       0.26721483       0.10364821
O        8.40607181       5.57807998       1.88774999       0.39667969      -0.41053980       1.09219817
O        4.99943997       6.19138998      15.85319995      -0.05961743      -0.05987310      -0.05629516
Al       5.03947996       2.06563003       0.56838898      -3.31074124      -0.00537179       1.06935599
Al       7.79754000       2.08072002       4.07816996      -1.48334714       3.17088730      -0.89914661
Al       6.47861002       6.49979000       2.97483995      -1.47738991      -2.70459620      -0.79478964
O        8.32588010       0.60235898       4.67683994      -1.05991760       0.40511389       0.49740438
O        6.58743999       7.29040003       1.38512999       1.06710169       1.23617754       1.76887309
Al       3.33202998       5.85985004       3.51023002      -0.44689840      -0.09036791      -2.02623033
Al       1.31472004       6.59544002       1.23569004       2.35559912       0.59603657      -0.53945294
Al       1.55524998       1.59046001       1.35050002       1.50046658       1.13039726      -0.21359698
O        0.81385099       0.13887198       0.56381197      -1.75597715       0.44326609      -0.25172496
O        1.99973998       7.86603803       2.61456996       0.25758065       0.96311531       0.14994512
Al       2.35542000       2.86229001       4.07570998       0.95265750       1.34799287      -0.96931693
O        3.76775002       4.16713999       4.10269994      -2.71547303       0.75169761       1.84810780
O        1.54833996       5.54159003      15.99229995      -1.77502161       0.49466039       0.83570189
Al       5.50515003       4.77671999       0.32967303       1.85463100       1.35887801      -0.06588998
O        4.22658999       3.60690001       0.04834448       0.78164023      -1.68032645      -0.06482590
O        6.29024000       2.91404002       4.53116997       2.20435398      -1.17953311       0.35929800
40
Lattice="8.413 0.0 0.0 0.0 8.068 0.0 0.0 0.0 16.34645555" Properties=species:S:1:pos:R:3:forces:R:3 step=0 confid=0 wdir=cand4 energy=-284.01532417 pbc="T T T"
Al       0.07347367       4.45764003       0.59540902       1.13454703      -0.98765860      -1.39228681
Al       5.39609997       7.59751999       0.07183483      -2.49077075       0.74182995       1.23789975
O        4.64676003       7.21042001       3.57455005      -1.88209342      -0.90846675       0.35718307
O        7.50699999       6.58233000       4.33218996      -0.26285234      -0.92692801      -0.90833191
O        3.04449997       5.52800997       1.56084000      -0.80809141       0.69527460       0.16681925
O        6.91597000       3.78717003       0.48988595      -0.47542486       0.52184499       0.21841431
Al       5.37680004       3.39256003       3.62644008       0.15379422      -0.39007878      -0.32588188
Al       1.31552003       7.98031004       4.22409003       2.25532128      -0.47557645       0.23701118
O        6.13272996       1.08946004      16.18320007       1.60129218       1.04074930       0.30197800
O        1.12703997       3.09353002       0.14622804       1.86598481      -0.55329441       0.45725822
O        8.31915997       1.93012999       2.19623997      -2.79849586      -0.49404413       1.69096949
O        2.89675003       1.19855997       4.43201008      -0.31067008      -0.11469057      -0.38407566
Al       0.32831001       5.43078000       3.87529002       1.65939575      -1.05667724      -0.71472517
Al       3.63212001       0.49011398       2.93369004       0.72810279       1.72143619      -1.72599375
O        3.80508001       0.42474502       0.79320702       1.49078527       0.24259875       0.36669429
O        2.51353998       2.54413996       2.11978008       1.11452775       0.13125132       1.61609670
O        5.11377003       1.94413999       2.53003998       0.65475566       0.27626900       1.25777195
O        0.91966701       3.74176002       4.24830992      -1.49003199      -0.64705629      -0.37915373
Al       2.78478999       4.30431003       0.24558196      -2.77456651      -1.34580420      -0.05353024
Al       7.41613000       0.84301402       1.12852006      -0.62571599      -2.07785681      -1.37253239
O        1.91779997       6.24004002       4.28638997       0.19750965       0.37974641      -0.17470614
O        5.33338997       4.97296998       2.45948999       1.80028786       0.03870729       1.12826361
O        0.23922004       5.51126000       2.01671992       0.37513819       0.46799134       0.43623963
O        5.15766999       6.12945000      15.72419993       0.28912299      -2.66065648       0.76244913
Al       4.93443003       1.97298002       0.80165993      -2.68693549       0.39041511      -1.48644421
Al       8.04262003       2.28007997       3.96801005       2.61444893      -1.07155980       1.94373567
Al       6.21480997       6.57229002       3.14978005       0.54617273       0.02203841      -0.84180628
O        0.30797200       0.94056800       5.06628002      -1.58900124       2.01843460      -1.71532344
O        6.37844997       7.37908002       1.56688002       1.49591379       0.81105225       0.65618941
Al       3.60721997       5.63706997       3.37690996      -1.55112490       1.10170871      -1.24631240
Al       1.51738996       6.70133001       0.94606305      -0.37212926      -0.24284076       0.98956585
Al       1.35174001       1.52874997       1.31501007       2.37043824       0.71436074      -2.00612005
O        0.48065698       0.06759072       0.41009906       0.22628779       1.34814061       0.56893909
O        1.88839998       8.00169000       2.44404995      -0.14388565      -0.19632709      -0.32142989
Al       2.36175003       2.84807000       3.90758996       2.08381779       0.06176542      -0.55443225
O        3.79182996       4.06949000       4.12589998      -0.60161059      -1.47588149       1.01588900
O        1.29320000       5.51468002      15.89200006       1.00168183       0.07667196       1.86221681
Al       5.53955003       4.81159997       0.61193202      -0.83472294       0.11669463      -1.99189581
O        4.36506999       3.44613002      16.27240006      -0.84408055       1.17669852       1.35650447
O        6.75801004       3.04890002       4.66200994      -3.11712267       1.52971779      -1.03310683
40
Lattice="8.413 0.0 0.0 0.0 8.068 0.0 0.0 0.0 16.34645555" Properties=species:S:1:pos:R:3:forces:R:3 step=0 confid=0 wdir=cand5 energy=-282.17448586 pbc="T T T"
Al       0.26296001       5.47457997       0.13372398       0.84288468       3.01140673       1.03963269
Al       5.09534001       7.63923001       0.33359503      -2.89070629       0.25393263       2.05073256
O        4.56052998       6.42369997       4.22272003      -0.13462853       0.84288705      -0.30818032
O        7.62013002       5.82289997       3.99011994       1.40506975      -0.04362518       0.85391561
O        2.69179000       5.15421001       2.05336999       0.53371445       0.42513399      -2.35486633
O        7.18809000       4.85579002      16.12649993      -0.38431309      -0.33787444      -1.45688692
Al       5.55041996       3.32258998       3.29648998      -0.35442505       0.36846222      -2.45846421
Al       0.83892703       7.05322003       3.73204995       1.43109302      -3.16852850      -1.89419547
O        6.67423002       7.93938398       0.02054439       1.60304774       1.11989646      -1.24194679
O        1.16313999       3.96779996       0.05278810       1.92305731       0.85190474      -0.89740742
O        8.00787998       2.13417003       2.05286995      -0.78522180      -2.06916811       1.44613967
O        3.56677001       1.10659002       4.65700008       0.21848533       0.41828406       0.15800420
Al       0.04399982       4.35066997       4.26383006       0.55407390       2.79428066       0.25742520
Al       4.17793004       0.06053001       3.41609994       0.00689850      -0.92632598      -0.67225971
O        3.50296001       0.69333197       0.42327103       1.77075313      -0.88136936      -1.05351778
O        2.25098001       2.75532003       2.20537993      -0.02127457      -2.02292520      -1.44277200
O        4.87868002       1.94084002       2.18062992       1.01380558       2.05021325       3.36678941
O        1.21194002       3.13985002       4.43518996       0.09035005      -4.07421314       0.69043099
Al       2.82305997       5.00991004       0.20578798       1.19310150       1.09308953       2.33294664
Al       7.83732996       0.39784397       1.20006997      -0.65976989      -0.84557142      -1.36482231
O        1.70152000       5.53129002       4.45977993      -2.22891974       1.82244347       0.04415351
O        5.98199004       4.92444999       2.15580995      -1.08534733      -2.62376862       0.88235289
O        0.29554103       6.82565999       1.55234001      -1.03380038       1.21492776       2.49965835
O        4.41679000       5.99371002      16.32710004       0.32808390       2.22041090      -0.65695226
Al       3.59738004       2.36054996       1.09257993       1.63410302      -1.62458157       0.00924973
Al       8.35772003       1.82121998       4.10614006      -1.17199606       0.21033999      -1.85425854
Al       6.12742001       6.27331003       3.33659993      -1.93493232      -0.05239969      -1.92699562
O        8.17960403       0.11107296       4.40123003       0.46071451       3.08643149       0.06896619
O        5.57929001       7.61400001       2.26991998       0.04738102       0.23099135       0.56901904
Al       3.24892998       5.26395998       3.65715997      -0.69050736       3.35950125      -0.68872522
Al       2.05891997       7.77599004       0.93035901      -0.19891523       0.26075260      -0.17968006
Al       0.87091098       2.58300998       0.97289494       0.62869415      -1.73706638       0.65887862
O        0.91007602       0.88823500       0.20927092      -0.59959253       2.43345366       1.23162965
O        2.56723999       7.82796998       2.62729992      -1.61449268      -0.33970813       1.63855177
Al       2.90394003       2.47024999       3.88242001      -0.52110381       1.34802507       0.24633339
O        4.04827999       3.90374997       4.16785005       1.40863128      -4.18875766       0.41591019
O        1.78483999       6.52801001      16.13059995       0.29794382      -3.99715459      -2.33080689
Al       5.61878997       4.77850003       0.29922301      -0.83184899      -0.60852953       2.10290396
O        4.23852997       3.61573003       0.10371107      -1.08497193       0.41085281      -0.87908014
O        7.05318998       3.12581001       4.22419007       0.83488094      -0.28605417       1.09819375
40
Lattice="8.413 0.0 0.0 0.0 8.068 0.0 0.0 0.0 16.34645555" Properties=species:S:1:pos:R:3:forces:R:3 step=0 confid=0 wdir=cand6 energy=-282.95762231 pbc="T T T"
Al       0.32508404       5.68093996       0.13076200      -1.26600473      -2.13433860      -0.58630531
Al       5.02246997       7.73880002       0.47935294       3.11070423      -2.06915944      -0.32529010
O        4.56834002       6.31907003       4.33731000      -0.84809912       1.11012142      -0.99041049
O        7.76123000       6.03317997       4.19564001      -3.09165656      -1.23220372      -1.48285776
O        2.56954002       5.23303002       1.84672006       0.62474105       1.89728943       2.11944008
O        7.29012000       4.89803004      15.91660000      -1.81941266       0.25696764       1.28025820
Al       5.52410999       3.34589997       3.22059992       2.15645737       0.94173234       2.31166816
Al       0.87753000       6.94735004       3.78386004      -2.01980226       5.28297129      -1.35876541
O        6.69149997       7.97303189      16.23340003      -1.95191273       0.15634256       0.41645995
O        1.19574003       4.07004000      16.32652530       0.40344560      -1.35678696       1.05586031
O        7.89003000       1.88405001       2.09026998       0.85923284      -0.07818910      -0.23810347
O        3.69997001       1.20681999       4.79862005      -0.33894123      -0.76026645      -1.23788710
Al       0.11123500       4.50491004       4.39303997       1.38080920      -2.47310397       1.37030031
Al       4.12991999       0.03460002       3.57127994      -0.62939675       0.39186900       1.01182673
O        3.61709002       0.58643597       0.29464699      -1.67369493       0.75202234       0.60658125
O        2.33790001       2.58896997       2.02083008      -0.87485281      -1.17532561      -0.28152486
O        4.99869997       1.94241997       2.51794001      -1.59729861      -1.64635371      -3.37465921
O        1.27533004       3.03412001       4.61203000      -1.68872407      -0.43855664      -1.87508399
Al       2.87315997       5.14863002       0.14628002       1.99956434      -2.76193514      -0.14264177
Al       7.80283001       0.26902004       1.09637999      -0.13452244       2.36367313      -0.27292334
O        1.68933999       5.70297004       4.50359006       1.54580307      -2.68292863       0.28129256
O        5.86893000       4.84541998       2.33000007       0.63971939      -0.33661106      -1.30450978
O        0.26265899       6.91461002       1.65990001       0.60076162      -1.09325829      -0.03685301
O        4.55486996       6.10692003       0.01244439      -0.33884115      -0.87205812       0.05065551
Al       3.78037002       2.17303004       1.09004001       0.89835799       1.18188468       0.32623586
Al       8.20650998       1.85340000       3.96230007       0.84406294       0.11632648      -0.19817885
Al       6.07222998       6.33382003       3.38113993       0.82076633      -1.41514635      -0.00072760
O        8.26517804       0.23233500       4.47658000       1.26133458       0.34426160      -1.04122615
O        5.36433004       7.57384000       2.31166997       0.84807793      -0.15072773       0.07468156
Al       3.18548999       5.34195003       3.53360006       0.91686618      -1.19070125       0.46439976
Al       2.02962001       7.61460002       0.94012798       0.09937159       1.56149838      -0.51440832
Al       0.80619196       2.50038002       0.82961499       1.26396957       2.57741583       1.60911681
O        0.81699198       0.95305202       0.15738106       1.16572642      -2.26747646       0.16574863
O        2.44389001       7.93179998       2.79796003      -0.50909362      -1.39701880      -0.55641893