40
Lattice="5.587 0.0 0.0 0.0 8.413 0.0 0.0 0.0 21.43792265" Properties=species:S:1:pos:R:3:forces:R:3 step=0 confid=0 wdir=cand0 energy=-288.27269576 pbc="T T T"
Al       2.67060081       2.28346302       3.62683860       0.04253075      -2.29987017       0.24377538
Al       5.41155200       5.15185097       5.89394244      -0.24851700       1.45844408      -1.53057246
O        5.43006413       3.62953831       6.64934066      -1.15060730       0.96860676       0.14072366
O        2.54186113       6.98077408       3.73918768       1.29187091      -0.45687530       0.97480185
O        1.70234801       5.39373280       5.62799021      -1.73523664      -0.69976513       0.48316925
O        0.41633989       8.21127973       4.51160761      -0.91841837       0.04629878       0.07399690
Al       4.70555270       4.55402101       2.80695404      -2.05586591       1.82001254       1.27607408
Al       5.35609477       8.33427140       0.49083067      -0.13537248       0.60438040      -0.51647430
O        5.43546034       6.92253138      20.83706956       1.75226263       0.50486044       0.01912993
O        2.78722463       3.75521002       2.75696444      -0.07557417       1.79954117       0.95123126
O        2.81088166       5.83018435      20.52831910      -1.09132740      -0.82860055       0.38650813
O        5.19549276       2.93146720       2.51756759       1.61789542      -2.25465581      -0.91722986
Al       3.21556204       7.47207166       2.07513367       0.84980660       1.43788620      -0.65343080
Al       5.30449524       2.88720960       0.64408802       1.11769582      -0.34928038      -0.17841804
O        0.18565333       4.49961506      21.34943076      -0.22280623      -0.96337668       0.94972746
O        2.37267649       1.06189265       2.36986138       0.09101066      -0.38147073      -0.03025268
O        3.69500877       2.64686988       0.25248192      -0.77211410       0.55354292      -1.08900056
O        5.24395233       8.38657140       2.31767375      -1.30245396       0.83895425      -0.60968679
Al       2.28050412       5.02895311       3.96102601      -0.59802403       0.40446290      -1.37510220
Al       0.21332457       8.08338194       6.26940943       0.39820725       0.38973957       0.23651060
O        5.56450126       1.32311705       6.96602208      -2.20530220      -2.96441984       0.28622219
O        4.03421520       4.95348001       4.57873789       1.10754455      -0.46142148       0.25762394
O        2.65084992       2.60214805       7.24004954       0.03049926       0.10664989      -1.11915931
O        0.59300636       5.42737454       3.18537453       0.72176403      -0.61259903       1.20689726
Al       1.27891967       5.98006581      21.37186727       2.38850839      -0.26189499      -0.60986856
Al       4.32521415       5.60038258      21.27329227      -1.71913575       0.67314863       0.23034011
Al       2.81178340       6.79519247       5.75223648       0.08259790       1.60959329       0.68558063
O        4.60789937       6.70442865       6.42387074      -0.26889344       0.17708217      -0.15038366
O        1.85965100       7.95804919       6.69530549       1.80323404      -1.59320665      -0.24047247
Al       4.17243870       2.31960914       6.48908468      -1.67039669      -0.26230523       0.37837569
Al       1.11490021       2.44931034       6.40101748       3.73611842       0.67041661       3.06358656
Al       2.53231088       1.43622538       0.51939520       1.42533222      -1.35710797       1.76326501
O        0.80786763       1.45600157       0.11920986      -1.23218497      -0.01096289       0.06910782
O        3.59089033       8.33603636       0.38877566      -0.95431028       1.11051645       0.17341147
Al       5.47167197       1.36779580       3.69924154       0.09319098      -0.15877078       0.12641376
O        3.93468000       1.52658487       4.76708612       0.38413692       1.87408035      -0.75617703
O        1.23692442       2.31980205       4.73338034      -0.05146216      -0.02549539      -3.53806982
Al       0.76710806       7.19235934       3.04780824       0.68990043      -0.06737041       0.81681390
O        1.64978031       6.92466467       1.45334988      -1.81535487       0.21148899      -1.55520275
O        4.12658664       5.94475544       1.65640452       0.59925079      -1.25025701       0.07621444
40
Lattice="5.587 0.0 0.0 0.0 8.413 0.0 0.0 0.0 21.43792265" Properties=species:S:1:pos:R:3:forces:R:3 step=0 confid=1 wdir=cand1 energy=-290.33454657 pbc="T T T"
Al       2.08266336       0.63097500       4.12252946      -0.03313462      -0.25155707      -0.70385941
Al       0.65955680       4.87112700       6.13942252      -1.02468179       1.93662591      -1.15791507
O        4.97523389       3.41567800       6.43792265       0.83119656      -0.85047904       0.90633114
O        3.41220321       7.71472100       4.13866450      -0.06273557       0.45153912      -0.27665136
O        2.00677151       3.41567800       6.06681442       0.24949128      -0.67112386       1.87807420
O        0.80116340       7.70630800       4.32421872       0.08047065       0.66220446      -0.17486989
Al       3.58741493       4.83747500       2.31539319       0.03473893      -0.25003341       0.70395549
Al       5.01052150       0.66462700       0.29850013       1.02346822       1.93661007       1.15842459
O        0.69484441       7.62217800       0.00000000      -0.83081504      -0.85062115      -0.90645921
O        2.25787509       3.50822100       2.29925815       0.06200545       0.45081168       0.27672428
O        3.66330679       7.62217800       0.37110823      -0.24941291      -0.67038575      -1.87896478
O        4.86891490       3.49980800       2.11370393      -0.08106546       0.66198706       0.17524480
Al       3.58741493       7.78202500       2.31539319       0.03473871       0.25003231       0.70395559
Al       5.01052150       3.54187300       0.29850013       1.02346767      -1.93661010       1.15842342
O        0.69484441       4.99732200       0.00000000      -0.83081921       0.85062164      -0.90646397
O        2.25787509       0.69827900       2.29925815       0.06200654      -0.45081574       0.27673394
O        3.66330679       4.99732200       0.37110823      -0.24941425       0.67038852      -1.87897169
O        4.86891490       0.70669200       2.11370393      -0.08106320      -0.66198591       0.17525069
Al       2.08266336       3.57552500       4.12252946      -0.03313448       0.25155655      -0.70385986
Al       0.65955680       7.74837300       6.13942252      -1.02468278      -1.93662629      -1.15791494
O        4.97523389       0.79082200       6.43792265       0.83119248       0.85047632       0.90633784
O        3.41220321       4.90477900       4.13866450      -0.06273489      -0.45154203      -0.27664349
O        2.00677151       0.79082200       6.06681442       0.24949283       0.67112502       1.87807347
O        0.80116340       4.91319200       4.32421872       0.08047178      -0.66220283      -0.17486714
Al       2.17890944       6.30975000       0.20168926      -2.18956200      -0.00000079       1.98348846
Al       4.96131852       6.30975000       0.19362174       2.35645436      -0.00000030       2.09109864
Al       3.45718995       6.30975000       5.19551657       0.05654640      -0.00000003       1.55096241
O        4.93261486       6.30975000       6.23623339       1.75940219       0.00000074       0.41064894
O        2.04288968       6.30975000       6.35724703      -1.92564200      -0.00000076       0.43404562
Al       3.49116886       2.10325000       6.23623339       2.18964199      -0.00000095      -1.98435311
Al       0.70875978       2.10325000       6.24430091      -2.35573881      -0.00000004      -2.09157665
Al       2.21288834       2.10325000       1.24240608      -0.05670958       0.00000035      -1.55187280
O        0.73746344       2.10325000       0.20168926      -1.75936016      -0.00000068      -0.41207064
O        3.62718862       2.10325000       0.08067562       1.92475013       0.00000193      -0.43379293
Al       4.89122133       2.10325000       3.20282607       0.02819088       0.00000122      -0.17800802
O        3.46032622       2.10325000       4.34842150      -0.38742810      -0.00000143       0.46306502
O        0.76847218       2.10325000       4.24354310       0.47270835       0.00000131       0.19655696
Al       0.77885696       6.30975000       3.23509636      -0.02821527      -0.00000000       0.18129663
O        2.20975208       6.30975000       2.08950115       0.38902232       0.00000202      -0.46289921
O        4.90160612       6.30975000       2.19437955      -0.47310759       0.00000193      -0.19667793
40
Lattice="5.587 0.0 0.0 0.0 8.413 0.0 0.0 0.0 21.43792265" Properties=species:S:1:pos:R:3:forces:R:3 step=0 confid=2 wdir=cand2 energy=-264.44109222 pbc="T T T"
Al       4.34311635       1.54735716       2.66643660       0.96905392      -1.55832942       1.90034897
Al       0.16734093       5.60162182       6.11407024       1.47766969      -0.92404179       0.15265826
O        0.19216604       4.48509591       7.57395504       0.00791021       2.12994017       1.40610537
O        3.53520464       8.30400193       3.33352730       0.99041828      -0.57617761      -2.84796510
O        2.71371479       3.64834969       8.58949538       1.82040857       0.74865798      -0.10071593
O        0.54832494       1.09057618       3.12305320       0.61100149      -0.14267641       0.50492122
Al       4.14720077       3.54619560       4.40179592      -0.26017958       3.86987238       3.50022573
Al       0.11232194       7.67476430      20.01175434      -1.01583667       1.44953225       0.59951899
O        0.08660409       6.00580337      19.86061399      -0.02472522      -0.96726029       1.61274415
O        2.48725329       4.56518792       3.13703137      -1.27599998      -1.99713060      -2.20468157
O        0.61408773       4.00852276       0.99291325       1.93133680       1.59017288      -0.37658131
O        5.36480875       3.29928532       3.15898574      -2.36830656      -1.16467557       0.51282434
Al       3.85057889       7.48408247       1.67553230       2.69413919      -2.32652363       1.22192548
Al       5.09079311       1.72023396      20.59281166       1.78198080      -6.78668090       2.70062584
O        5.18264127       3.01546048      19.76441967      -0.68053235       7.75980538      -0.31956621
O        3.26336173       2.10532372       4.26273712      -1.41540253       0.30595851      -1.73368513
O        2.83102972       2.26961278       0.83668761       1.41889072       1.29894131       1.34990376
O        5.00226749       0.48520480       0.72496537      -1.74139172       0.07638323       0.86533903
Al       0.66915348       4.70342916       2.79128334       0.45151059       4.08072723       0.80684282
Al       5.31250527       0.82245808       7.03448216       1.40423022       5.08795516       1.59443625
O        0.63965194       1.69027577       8.39188104      -1.66615281       0.52614213       1.54132088
O        4.34393250       5.44329791       4.97928125      -0.56129062       0.05415911       0.79374988
O        1.14605690       1.41500174       6.25395698       2.67243591       2.25347442      -4.77770632
O        0.28784492       6.63265213       2.95862691      -2.73067070      -4.86696043      -1.49022373
Al       5.22015926       4.63091137      21.01967478      -0.45325975       0.77747260      -1.32334962
Al       2.50879944       3.95265514       1.36001259       1.25116940       2.14965408      -0.69629073
Al       3.52508765       7.05843759       5.26142768       0.85086221       0.90499269      -0.14508427
O        4.82576516       7.70414611       6.72575056      -2.42937929      -4.69850965      -2.88795354
O        1.89100021       7.30198982       4.98093240      -1.46266137      -1.34545484       0.89231529
Al       4.35603037       3.55429732       8.04068863       0.27681412       0.86941075       2.16663037
Al       1.60735046       2.96110106       7.49694445      -3.18010638      -1.46451202       0.02482051
Al       2.73392772       0.93301213      21.22388643      -2.09171134      -3.95005398      -1.38122930
O        1.24417361       0.89601655      20.16307156      -3.00401170      -1.79279816       0.57592719
O        3.63263153       0.02739811      19.91026357       3.78522808       1.68016529       0.99304554
Al       1.34375887       2.30756946       4.49466436       0.10299143      -1.19300764       2.23169341
O        4.44316282       2.62049630       6.71994881      -1.76115065      -3.91391072      -4.20047054
O        0.83340558       4.01210232       5.39947697       1.73512692      -1.21891734      -2.38982745
Al       1.22388453       7.90222952       2.60010960       3.02907448       2.76870372       1.21516456
O        2.28059273       7.55826553       1.11501701      -2.74736905       2.99929759      -1.07982242
O        3.62856001       5.48275858       0.84188823       1.60788522      -2.49379788      -1.20793472
40
Lattice="5.587 0.0 0.0 0.0 8.413 0.0 0.0 0.0 21.43792265" Properties=species:S:1:pos:R:3:forces:R:3 step=0 confid=3 wdir=cand3 energy=-278.2570233 pbc="T T T"
Al       2.41436629       0.58702481       4.20716724       0.60699645      -0.46185236      -1.56843479
Al       0.23682120       4.95853252       5.94823483      -0.64113471       0.18142919       0.00516950
O        5.12391815       3.12474594       6.42969649       2.10639476       3.74347624      -1.37527986
O        3.65173846       7.53889485       4.52076524      -0.54608290       2.11136784      -3.57566603
O        2.34262536       3.59236404       6.05754209      -1.81259095      -3.75695826       0.76199022
O        1.12784898       7.79010863       4.31008492      -2.43308361      -0.69819428       0.19429457
Al       3.37231264       4.77930710       2.35707408       5.38456861      -4.29330617       0.34755612
Al       5.08697121       0.86255200       0.38187200       2.29844468      -0.61012123      -0.42356896
O        0.67187446       8.22462578      20.88792610      -1.66334254      -2.21166768       2.46679019
O        2.19057526       3.47156623       2.05497795       1.02831952       0.60582571       2.48643801
O        3.38385103       7.32583403       0.15110670       0.63860786       0.77390020       0.93850556
O        4.80342923       3.55793308       2.23351747      -1.05472300       1.38445343       0.43897261
Al       3.61285919       7.56393581       2.36504599       2.97649637       1.09370531       0.52075618
Al       4.66783402       3.54945799       0.47598062       3.27833413      -3.70291582       0.31505172
O        0.59130808       5.34006905      21.21650192       0.86321296      -0.79657070       0.11701657
O        2.49511654       0.53622838       2.31835805      -0.20372839      -1.39599145       0.69037776
O        3.58270906       4.82645776       0.36712700      -0.11642173       2.24565504      -1.44707537
O        5.14494198       0.54852079       2.23339614      -2.20002217      -1.96333012      -0.73710880
Al       2.35522823       3.72283268       4.25449874      -2.73141850      -1.88743258      -1.69697964
Al       0.14586361       7.77994211       6.14854971       0.32719024      -2.67904655      -1.73254550
O        5.14310302       0.92129097       6.74784534       1.15791311      -1.88488265      -1.65900781
O        3.56375941       4.84753291       4.31996244       1.07023591       2.95633884      -1.44034947
O        2.42476644       0.70214486       6.01342327      -1.53338003       3.70381408       1.09388980
O        0.98778518       5.11697951       4.32829922      -0.27059945      -1.30696096      -0.86536185
Al       1.88050676       6.34002889       0.42842038       0.67007259       0.87677037      -5.00384922
Al       4.81233060       6.26372231       0.12169430      -1.51521809       1.29298345       0.23854447
Al       2.94255747       6.31892320       5.63106741       5.76524704      -0.91742011      -4.69458338
O        4.57835654       6.24770547       6.27971743       2.29592621       0.10084836       1.98167417
O        1.57602689       6.31692932       6.40701988      -6.26223149       0.53094664       4.31542838
Al       3.74102319       2.02620619       6.10016668       0.52076560       0.64551839       0.00619842
Al       1.00118548       2.14984010       5.77739967      -1.47175205      -0.02449162       2.78749606
Al       2.31865796       1.88910053       1.23623603      -2.31417784       2.35970788      -1.57708943
O        0.52342111       2.30172394       0.72237932       1.27847438      -0.63046120      -2.20352865
O        3.71621462       1.95875445       0.03989919      -0.89536105       0.44830382       0.59501750
Al       5.04150521       2.06892429       3.09942690      -0.21364890       0.82648530      -1.74537540
O        3.54968883       2.23129527       4.06919212       0.12877629      -2.24270479       3.01088216
O        0.97086081       2.17442735       3.90380155       1.61826721      -0.26735523       4.36294747
Al       0.92387867       6.44659014       3.10440243      -2.46645377      -0.50298730       2.68347729
O        2.33956670       6.01784944       2.04864540      -3.76314510       5.38570054       2.52322563
O        4.91784333       6.23709298       2.24400877       0.09427233       0.96742042      -1.13589618
40
Lattice="5.587 0.0 0.0 0.0 8.413 0.0 0.0 0.0 21.43792265" Properties=species:S:1:pos:R:3:forces:R:3 step=0 confid=4 wdir=cand4 energy=-285.06909325 pbc="T T T"
Al       0.96048491       8.14719917       3.77691392       2.63227872       0.35105613       0.34639115
Al       0.26763820       3.59800689       6.35896978       0.47578353      -0.39958417      -0.71825196
O        0.71780385       2.31245102       7.59286608       0.08098779      -1.67855764      -0.98046432
O        3.94018666       6.99121352       5.37514321      -0.72088983      -1.21450367      -0.66981590
O        1.88931154       4.14745765       5.37844251       0.68772895       0.22628287       1.52834584
O        0.00075223       6.83705976       2.83547998      -0.84779528       2.03557064      -0.05720382
Al       2.99514561       5.45624114       1.48496417       0.39247898       1.15104741      -1.26772640
Al       5.15648215       1.97869865       0.09234064       2.10424071      -0.96650461      -0.46414462
O        5.47791684       0.28175743      20.67652160       0.68558070       1.87387764       1.13653105
O        3.45710185       2.99136624       3.32887827      -2.70514257      -2.85656139      -0.14930425
O        3.66649322       1.73250760       0.80638124      -0.96705700      -0.16136132       1.02291805
O        4.53692983       4.64930942       1.06047551       0.15017765       1.94770678       0.64390928
Al       4.16050308       7.63851335       3.62663644      -3.27319312      -0.74727759      -0.46710060
Al       0.24121414       4.85210571      20.99951542      -0.68339138      -2.81731837       3.11319589
O        0.07999595       6.43088382      20.37377890      -0.67439273      -1.30123224      -0.66195002
O        2.56296725       8.40546767       2.93302081       0.00487944       0.86659155       0.54124682
O        2.64642390       7.86451303      19.51981318       1.47775690       0.63305505      -2.75681313
O        5.07564273       0.76219971       3.74954198       0.34015265      -0.13532268       0.40454442
Al       2.78280296       2.67009926       5.02294279       1.16319978       0.99365351      -0.28160566
Al       5.41245558       6.54819444       6.42291439      -0.43894486       2.62762500      -0.09185149
O        0.12146540       8.03715461       7.47685176       2.04750408       1.69571791      -1.77492810
O        2.84571934       5.78863254       3.19209382       0.58890268       1.06818782       0.97308215
O        3.31798795       0.60772820       7.62917699      -1.46675688      -0.22712441       0.69784120
O        0.10225070       4.03911184       3.79189495       0.25132420       0.94922206      -0.89577929
Al       1.42872814       7.57557284      20.61586707      -0.83026244       1.17229411       0.55377836
Al       4.11704013       7.57242192      20.37572439      -0.36368489       0.26225904       1.17543746
Al       2.44593832       5.85976042       4.95482101       1.52190656      -2.22798937      -0.83743967
O        0.03369989       5.05514413       7.10407758      -0.71239403       1.00302121       0.87327890
O        1.06130009       6.83393702       5.08509112      -0.50151589       1.60989847       0.93557963
Al       4.81330676       1.29062874       7.36127263      -0.00146308      -0.02324313      -0.34230353
Al       1.77982025       0.74913744       6.97154963      -1.87534802       0.15562051       0.92664071
Al       2.59538001       1.68769819       2.14886941      -0.54323322       0.47062113      -0.70554955
O        0.84493358       2.06165470       1.80610511      -0.98408902      -0.28094954       0.21296358
O        0.04340233       3.24127887      20.47659861       0.32260468       0.43541054      -0.56277292
Al       5.13960840       2.53796729       3.18695987       1.46256162      -1.27660364      -1.32112788
O        4.19557581       2.75920421       6.14127261       1.33761407      -1.23485734      -0.17702838
O        1.74564921       1.22067464       5.22446077       0.16936059       0.06933791       0.03055596
Al       0.25772708       5.20178692       2.42659770      -0.45728293      -2.77451144      -0.28652060
O        1.43690265       4.75478943       1.13714524      -0.37573846       0.97704331      -1.31095321
O        2.83928574       7.11834143       0.29527587       0.52555136      -2.25159803       1.66439485
40
Lattice="5.587 0.0 0.0 0.0 8.413 0.0 0.0 0.0 21.43792265" Properties=species:S:1:pos:R:3:forces:R:3 step=0 confid=5 wdir=cand5 energy=-275.65964745 pbc="T T T"
Al       2.55659304       1.05237451       4.36728537       1.16559944      -2.40209957       0.14267285
Al       0.29304206       5.51346443       6.05321999       0.47301123       0.41930538      -0.43558845
O        0.73667461       3.82477603       6.76327271      -1.51713874       1.14792259      -0.49753280
O        3.09867730       7.70466536       3.96909911      -0.17507695       1.36509449      -2.93602976
O        3.16185454       2.78004489       7.70638331       2.54188329       0.04521227      -1.74346243
O        0.68324591       0.51740707       4.07233793       0.87405026      -2.36154497       1.75980687
Al       3.62782582       3.97513871       3.97779733       2.22659042      -1.36446609       0.56371478
Al       5.15709460       0.26071752       0.22560327       2.26334479      -0.20694275      -0.65815517
O        0.03025444       7.74326723      20.23848824      -0.53788624      -1.17175603       1.36251224
O        2.74414321       3.88855296       2.16037343      -2.07814344       1.95428528       0.87630873
O        0.28143378       4.64750517       0.77146551       1.71931523      -0.43574562      -2.77101933
O        5.23666236       3.46707478       2.87473560       1.56879270       1.04122048      -0.62249370
Al       3.37153270       7.94810687       1.94623709       0.98028886      -1.39569657       1.63491136
Al       0.02650355       3.39524131      20.97476105      -2.12228227      -0.44250331       0.09090547
O        0.29266466       4.41420873      19.59637680      -1.09880112       1.60133375       1.56288889
O        2.34890654       1.37626492       2.56069898       0.66135237      -2.11063411      -1.69292803
O        3.59901047       3.10551913       0.04432591      -0.23411189      -1.52356697      -1.55316619
O        5.28196779       8.03039367       1.93299553      -2.21592232       0.20982378      -0.01708163
Al       1.07396828       4.66570981       2.27183883      -1.33275698       1.36574519       3.56128743
Al       0.87523763       8.10824648       6.43716225      -2.44282117       0.66374629       2.39331758
O        0.26451406       1.30716306       7.09013693       2.57918700      -1.65627437      -0.21634965
O        4.13069845       5.28425048       5.22253971      -1.34529826      -1.43863791      -1.88065250
O        2.46361246       0.42233689       6.15111476       0.87998728       1.81152703      -2.34576971
O        1.29611070       5.92648300       4.27576237      -1.38306530      -2.35413298       1.63832919
Al       5.15600731       6.07853661      20.58188453       1.28917008      -1.27044866      -0.72112017
Al       2.78356738       4.54728564       0.46308979       1.65394637       2.41036824       0.27080831
Al       3.14772094       6.81581795       5.54295605       1.48254066      -0.60883809       2.60873594
O        4.86070844       7.27950414       6.26546828       1.07687792      -1.06423326      -0.25265589
O        1.75522734       6.42652311       6.86560621      -0.31537761       1.55680283      -2.28049340
Al       4.79874414       2.58898465       6.92734035      -0.76746624       1.60919165      -0.17212048
Al       2.01264250       2.56836725       6.46209541      -2.46633932      -0.22905799       2.55694005
Al       2.36173172       1.82310492       0.85928425       1.51970073       0.83055789      -0.83127245
O        0.66883748       1.79582005       0.12999399       0.49620519       0.48234641       0.12804358
O        3.46291060       0.49737076       0.47180580      -1.60943413      -0.03718252      -0.93362403
Al       0.44912496       2.13270711       3.71064587      -2.55779237       3.17222315       1.07129392
O        4.76318473       2.74461531       5.07029359      -1.94285758      -1.67230183      -1.08452844
O        2.09327436       2.80340064       4.34067683       0.15207256       0.66383554       3.55641057
Al       1.12516370       7.31909320       3.28954054      -2.00423411       1.72088526      -0.13598532
O        1.49949040       6.47072586       1.85718203       3.15280333      -0.21545679      -1.27325467
O        3.72688869       5.98738083       0.18625846      -0.60991365      -0.10990710      -0.72360356
40
Lattice="5.587 0.0 0.0 0.0 8.413 0.0 0.0 0.0 21.43792265" Properties=species:S:1:pos:R:3:forces:R:3 step=0 confid=6 wdir=cand6 energy=-286.5356584 pbc="T T T"
Al       1.75002283       0.40789530       3.93297106       0.86038602       0.29313947      -0.64728924
Al       0.01333427       4.57462041       5.92856018      -0.02691888      -2.07375668       1.04004578
O        4.79052885       3.01586120       6.79498862       1.36840076       0.85432693      -0.57695588
O        3.28398848       7.87372863       4.27679332      -0.06196218       1.05856654      -0.17472939
O        1.49275840       3.64908575       6.02304911       2.02443192      -0.33270704       1.09481603
O        0.45284205       7.66637326       4.24676780       0.93800962      -0.13204528      -0.75568646
Al       3.34062385       5.04598548       2.26093208       1.02807271      -0.07297483      -0.94549336
Al       0.06179725       0.63229954       0.43559822      -2.51113457      -0.94990498      -0.01643061
O        0.56103229       7.34752628      21.28087250       2.07043290       1.09025637      -0.46064272
O        2.38222300       3.39372966       2.26348362       1.15747442      -0.36099216      -1.23864212
O        3.99035826       8.00934855       0.33658610      -1.78666717       4.91257349       1.55664566
O        5.09402619       3.81974480       2.14812658      -1.18474781       0.23022662      -2.16078598
Al       3.99748593       8.26506993       2.51673023       1.72744584      -3.77807406       0.05796985
Al       0.04114434       3.38098287       0.45259378      -0.35185018      -0.83651531       1.16297655
O        0.20395980       4.94226935      21.15373126      -0.33597420      -0.29447692      -0.52211297
O        2.52539462       0.63495713       2.37095643      -1.01123741       2.05761915      -2.23573273
O        3.14589807       5.47391121       0.06423188       1.39988981      -0.58387642      -0.71128696
O        5.38869558       0.97436968       2.27934189      -1.35169305      -0.28655069       1.11227137
Al       2.24819601       3.55686875       4.11957875      -2.09189596      -0.01177402       1.77250231
Al       0.43913088       7.40462691       5.99884655      -3.67854852       1.62160887       1.17972494
O        5.21043542       0.57126760       6.32452419       1.07456238       0.02906127       0.13644376
O        3.03710527       5.13024614       4.01511411       0.75063471       1.06181770       2.24905679
O        2.39870409       1.08414764       6.61280336      -1.92656542      -0.34711947       0.02335666
O        0.40325988       4.63522126       4.20042372      -0.17856714       0.79008630      -0.61609200
Al       1.51468230       5.91695763       0.32349054       0.22396537       1.36538246      -0.22973143
Al       4.53694575       6.57212674      21.27092831       0.66154064      -4.18833890       0.73275619
Al       3.17327012       6.47242267       5.30969730       0.42605015      -1.67227974       0.17810772
O        4.73887010       6.08996652       6.17137188      -0.26200324       0.89384345      -0.12751524
O        1.82042897       6.63988445       6.35408001       1.94603159      -1.53287215       0.61488906
Al       3.82313929       1.74268632       6.01634462       1.20248155       0.12744779       1.60950459
Al       0.88300976       1.97230039       6.41731266      -0.21050274       1.29533568      -0.11359229
Al       2.87226826       1.97693352       1.10452487      -1.39021080       0.44737170       0.04307594
O        1.21210742       1.90279555       0.29871130       2.62840531       1.88989382      -0.79567623
O        4.43640512       2.12840655       0.14592258      -2.29362430       0.02754721      -0.27547056