40
Lattice="5.587 0.0 0.0 0.0 8.413 0.0 0.0 0.0 21.43792265" Properties=species:S:1:pos:R:3:forces:R:3 step=0 confid=0 wdir=cand0 energy=-289.58389415 pbc="T T T"
Al       2.02972000       0.69602003       3.97341006       0.31699328      -1.17506846       0.96495583
Al       0.44597099       4.83311000       6.17074011      -0.08308050       0.09809871       0.84355437
O        5.02898999       3.40968004       6.74539991       0.05922420      -1.58852034      -1.01150909
O        3.37683001       7.83009999       4.10183008       0.75820457       0.00481692      -0.53091819
O        1.94688999       3.40459000       6.25122000       0.64092161       1.00037536      -0.88929369
O        0.81443599       7.77370000       4.28988996      -0.70375896      -1.80130580      -1.17655676
Al       3.53927002       4.72932000       2.36496002       1.14563210       2.36978799      -0.58726684
Al       5.19830001       0.70950203       0.36794207       0.44050675      -0.12837104      -1.93937536
O        0.65955898       7.58029001      21.31503662      -0.85767167       0.68624414      -0.06095148
O        2.31749000       3.49155998       2.28456010      -0.64951371      -0.81874578       0.52118361
O        3.60027001       7.57232997       0.26709508       0.39512074       0.17110259      -0.35420823
O        5.14311000       3.67058004       2.21042004      -1.77921652      -1.07309594      -0.38034851
Al       3.61530999       7.78709997       2.23756002      -0.46113193      -0.21832798       0.62978789
Al       5.11017000       3.44893997       0.36708798       0.46848342       1.32979671       0.14005280
O        0.74733902       5.10605001      21.35155162      -1.49599582      -1.17009982      -0.36804661
O        2.28645003       0.71659099       2.19679003       1.07240291       0.35137281      -0.40151449
O        3.64944002       4.94777002       0.25339110       0.62573732       0.36118649      -0.37329222
O        5.14444999       0.72257903       2.06055996      -2.34424690      -0.51366757       2.50684186
Al       1.96730003       3.65304003       4.22663008       1.66001157      -1.08812766       0.07318083
Al       0.55702898       7.57255998       6.04563010      -0.76822789       2.01064038       0.14349781
O        5.03959999       0.75613596       6.47764991       1.34042525       0.36105962      -0.17132510
O        3.25811000       4.99167999       4.16344009      -0.17055838       0.79513531       0.52367212
O        2.25437998       0.83905104       6.22991006      -2.23822342      -0.03908200      -0.00036220
O        0.58261901       4.78206000       4.37148999       0.17605492       0.58687865      -0.30911052
Al       2.10472000       6.30073000       0.14081800      -0.48336460      -0.01234452       1.64079510
Al       4.95640000       6.30713002       0.21119205       0.77288350      -0.73650524       0.61081940
Al       3.38673001       6.54418001       5.33747999      -0.50866112      -1.50069716       0.27934295
O        4.90825001       6.30349998       6.39610005      -0.58426032      -0.08640229      -1.19952286
O        1.89200001       6.49404997       6.36783994       0.29447830      -1.69156373       0.12270053
Al       3.57394999       1.95705999       6.20003010       2.40739367       1.38240618      -0.05748783
Al       0.78504797       2.06449997       6.22685001      -1.73204160      -0.86980669       0.66336409
Al       2.26355998       2.15742997       1.10080003       0.80290849      -0.42878401      -0.01356770
O        0.79637998       2.09306001       0.14718806      -0.85515522       0.65598471      -0.61758380
O        3.80087001       2.16995996       0.12724307       0.90223626      -0.69030442      -0.00548135
Al       4.82524998       2.13415002       3.16753003       1.96199903      -0.05515123       0.17047081
O        3.52079002       2.27198996       4.34402008      -0.84914227      -0.66267287       0.24834913
O        0.80342501       1.99479002       4.31305000      -0.53352934       1.66670034      -0.95391725
Al       0.72903701       6.10763996       3.18613000       0.11536681       2.10971969       0.16057397
O        2.12774001       6.27130999       2.01533002       0.27715399      -0.02425547       0.51518025
O        4.80167999       6.27119002       2.15114997       0.46364146       0.43159345       0.64331674
40
Lattice="5.587 0.0 0.0 0.0 8.413 0.0 0.0 0.0 21.43792265" Properties=species:S:1:pos:R:3:forces:R:3 step=0 confid=0 wdir=cand1 energy=-289.9876414 pbc="T T T"
Al       2.20566000       0.62314603       4.16200997       0.16925885      -0.64498409      -1.30269299
Al       0.32026098       4.91957999       6.06974005       0.31670973      -0.18375473      -0.20099819
O        4.97361998       3.34820002       6.50052010       0.84244338      -0.69470684      -0.35427445
O        3.48539000       7.77272998       4.04678006      -0.73021582      -1.57689215       1.47228217
O        2.05972001       3.40059997       6.19760997      -1.61105962      -0.13824939      -0.24112207
O        0.82068298       7.70632003       4.34430992       0.62630643      -0.13275940      -1.41449040
Al       3.68780003       4.80023999       2.41634994      -1.04356134      -0.41462020      -0.45600572
Al       5.32371000       0.86464902       0.41826502      -0.20129705       1.08169807       0.55014002
O        0.46155900       7.62366003       0.11780696       0.82660292       0.18581806      -1.30760124
O        2.21129002       3.46229999       2.29838991       1.63028305       1.06112555      -0.75175666
O        3.40987002       7.30542998       0.19898401       0.44756865       0.99755021      -0.45644930
O        5.04007002       3.56046001       2.18995990      -0.62625162      -0.78001332       1.17274596
Al       3.54257999       7.75950996       2.17494007      -0.18410866      -0.23207590       0.97444061
Al       5.17394002       3.70465000       0.36940992       0.18175566      -3.74561408       0.20940450
O        0.65067202       5.04688997       0.03667343       1.31395931       2.40827681      -1.09123874
O        2.42432998       0.71524701       2.13923992      -1.51771616       0.76278973      -0.08398590
O        3.76713001       4.74931004       0.35444196      -0.88117278       1.94434146       0.09986137
O        4.91982001       0.51142896       2.17474005       1.31004619       2.24237431      -0.84192504
Al       1.97189003       3.56261004       4.01930994       0.71540848      -0.03179889       1.43616276
Al       0.48630002       7.66265000       6.08781007      -1.20720036      -0.29882689      -0.11163074
O        5.16224000       0.70195700       6.56346999       0.43289288       0.94637634      -0.05398140
O        3.36309001       4.92396998       4.30033002      -0.81267491      -0.40005261      -1.55243464
O        2.24285997       0.87149897       6.17054009      -0.18165530      -0.37280407      -0.07968081
O        0.62906899       4.79316003       4.28954996       0.47289395       0.27942844      -0.28090842
Al       1.89642999       6.41364003       0.22950390      -0.33719079      -0.81191642       1.32832158
Al       4.88691001       6.27787003       0.37054999      -1.02169960      -0.72580765      -1.54077177
Al       3.22286000       6.37306001       5.35038991       0.77508937       0.52853113      -0.37734424
O        4.79551999       6.34132996       6.29661008      -0.88220657      -0.37121465      -0.28186366
O        1.66335002       6.34867998       6.31349009       1.21293746      -1.14687835       0.75856344
Al       3.46646002       2.28386996       6.11003991       1.86702743      -0.18908169      -0.01809795
Al       0.79708198       1.96038001       6.21161000      -1.26746819       1.59331590      -0.02185886
Al       2.42946002       2.19145004       1.04095006      -0.06226073      -0.24430948       0.17966057
O        0.85137198       2.30330003       0.12404003       0.46417161      -1.12312730       0.40717710
O        3.95892999       2.17452998       0.04764878       0.26089034      -1.20347431       0.32111133
Al       5.01058999       2.07037999       3.20802005      -1.69001883      -0.89918693      -1.08052318
O        3.42551999       2.11613998       4.26316995       1.57475104       0.43429546       0.19176652
O        0.90233598       1.93010003       4.12765999      -0.43840873       1.42898024       1.69218929
Al       0.83358800       6.25543996       3.23035001      -1.79459213       0.80265988       0.82371512
O        2.14841001       6.23144003       2.08415003       0.76881506       0.17251028      -0.14539201
O        4.85134999       6.31048000       2.13255000       0.28094739      -0.50792253       2.42948605
40
Lattice="5.587 0.0 0.0 0.0 8.413 0.0 0.0 0.0 21.43792265" Properties=species:S:1:pos:R:3:forces:R:3 step=0 confid=0 wdir=cand2 energy=-289.97452533 pbc="T T T"
Al       2.29138000       0.68129803       4.17848008      -2.91074714      -0.87234359       0.04793442
Al       0.51950898       4.87544001       6.11992001      -0.13660950       0.40164579      -0.39755848
O        4.97421002       3.41188004       6.55161996       0.12876891      -1.22474138      -0.40147727
O        3.53478998       7.72834998       4.31261995      -0.78966843       0.70309334      -1.51632045
O        2.00385001       3.50943996       6.23777006      -0.72589356       0.18147636      -0.47510829
O        0.76826502       7.90976000       4.23236001       1.17128092      -1.44175016       0.26972458
Al       3.72682003       4.65016999       2.35878998      -1.41083367       1.88892860       1.08665901
Al       5.33264998       0.78574097       0.38943509      -1.76584759      -0.85306242      -0.44985790
O        0.45335197       7.64498001      21.33314266      -0.08762585       0.03517149       0.53087753
O        2.23598998       3.61947998       2.24392001       0.19241086      -1.55851225      -0.56179339
O        3.38665000       7.36747998       0.09277240       0.02534675      -0.36566430       0.01432896
O        4.97976998       3.44767996       2.22445995       0.83447549      -0.89035751      -0.89048572
Al       3.66304001       7.75074000       2.41735002      -1.16790264      -0.55091642      -0.01677361
Al       5.05916002       3.46310999       0.33626111       0.82797914      -0.04856582       0.32346816
O        0.56543898       5.18469003      21.24298569       0.65608989      -0.83440591       0.46211831
O        2.34383003       0.78643597       2.23845999       0.21729221      -1.59288214       0.92728963
O        3.80412003       4.74163999       0.46924590      -0.56701392       0.72330246      -0.56996014
O        4.88389002       0.62107197       2.10773003       0.72782655      -0.61004896      -0.59537640
Al       1.99681000       3.60466999       4.06106008      -0.58595532       0.67394854       0.23118495
Al       0.40710100       7.60307999       6.08493996       0.14594807       0.45050872      -1.88710188
O        5.10161999       0.71237700       6.33224998      -0.16504072       2.19233304       0.94139306
O        3.30125002       4.82538998       4.30180002       0.87466892       1.15027046      -1.09512612
O        2.14309001       1.10100998       6.14978990       0.60722655      -1.95886775       0.20025166
O        0.67513001       4.94989001       4.31959006       0.28869791      -0.65580904      -0.58563205
Al       1.81424003       6.44843999       0.23736797       1.01825341       0.46023128       0.77238431
Al       4.78401999       6.27428996       0.29910297       0.09365115       0.04445502      -0.54441555
Al       3.29314999       6.37218001       5.39144996       0.44690914      -2.16486220       0.15249275
O        4.82608999       6.26282001       6.36871010      -0.14588813      -0.19205888      -0.24430473
O        1.74483999       6.32352999       6.29604005      -0.09320484       0.73503418       0.85791163
Al       3.57312998       2.16446997       6.03239004       1.02594477       0.95531847       1.13385737
Al       0.70794899       2.17545003       6.22445989      -0.16332256      -0.91596115      -0.71137000
Al       2.37841998       2.05870998       1.05690009       0.13531169       1.56376952       0.37557632
O        0.81329803       2.11236002       0.14004109       0.75101360       1.39009335       0.11394597
O        3.84989002       1.96334997      21.43601853       1.06375307       0.52306651       0.35564586
Al       5.01559002       1.97318998       3.16075008      -0.19982606       0.73557843       1.33886340
O        3.47436998       2.03749004       4.19074000       1.29536458       1.24482400       0.81706499
O        0.81591498       2.16738003       4.23505004       0.44465019       0.01085436       0.32278029
Al       0.86405799       6.30082002       3.18837005      -0.01351877       1.32421215       2.25462371
O        2.30438000       6.39584999       2.15594993      -0.63077825      -0.29455949      -0.82152314
O        4.94489000       6.33774998       2.29904999      -1.41318684      -0.36274673      -1.76619177
40
Lattice="5.587 0.0 0.0 0.0 8.413 0.0 0.0 0.0 21.43792265" Properties=species:S:1:pos:R:3:forces:R:3 step=0 confid=0 wdir=cand3 energy=-290.45134528 pbc="T T T"
Al       2.07042001       0.59166997       4.19525997       1.58009490       0.23585052      -0.82762893
Al       0.45701498       4.98976999       6.13774993       0.05022604      -0.95769355      -1.17418049
O        5.03267998       3.42681000       6.51344009       2.63235140       1.29671821      -0.05723800
O        3.38741000       7.58444999       4.22965991      -1.08258454       1.50264113      -1.22945139
O        2.14664999       3.18236002       6.21838996       0.35862632       1.12489940      -0.10437950
O        0.72716001       7.78891003       4.25295007      -0.24575933       0.09053430       0.51040168
Al       3.58977002       4.76817998       2.36827990       0.54853097       0.49284140      -1.33551125
Al       5.32069000       0.86915098       0.40413293       0.25482686      -0.88536943       0.33835988
O        0.45410002       7.67552996      21.39142401      -0.37675397       0.41181755       0.27047918
O        2.42776001       3.32922997       2.29787991      -0.28562139       1.38049492      -0.01585904
O        3.35836000       7.48409997       0.03119861       0.26709949       0.16164480       0.52169081
O        5.06849997       3.68012997       2.23977006      -0.03604926      -2.20828248       0.01622637
Al       3.50829000       7.75023000       2.38770009      -0.03290280       0.13049305      -0.36244367
Al       5.21156003       3.52324998       0.41104901       0.12817519       1.95611027      -0.20448799
O        0.58015699       5.12895003      21.41614108       0.13746192       0.23550948      -0.28044228
O        2.28409002       0.67272199       2.11577997      -0.43897964      -0.56329341       1.68169918
O        3.67469002       4.90842999       0.33929007      -0.94682075       0.19577328       0.27726403
O        4.83163000       0.68477504       2.24905997       0.72866681      -0.78653417      -1.79974531
Al       2.08634000       3.56078997       4.02648993      -0.85366946      -0.47224136       1.57015367
Al       0.50630701       7.81195004       6.03579996      -0.56811317      -1.02932425       0.69748063
O        4.95088999       0.91085204       6.48188990       1.21090521      -0.43661710      -0.19000914
O        3.38643999       4.80958002       4.18068990      -0.12512579       0.31661580       0.20336795
O        1.98666999       0.70947300       6.09872005      -0.72573174      -2.01990776       0.17434879
O        0.73612502       4.84143004       4.28417997       0.34422726       0.36284827       0.47098573
Al       2.08373998       6.29065998       0.25820091      -2.75965859      -0.97321937       0.11348988
Al       4.74629997       6.41413001       0.24130097       2.69105587      -1.35947241      -0.23928016
Al       3.34142000       6.21822001       5.31454999      -1.88468317      -0.63158139       0.49070945
O        4.81633000       6.30818998       6.18696990       1.86325101       0.85961849       0.94182950
O        1.82934001       6.11399001       6.44590999      -0.19086597       1.29045093      -0.60284611
Al       3.79061999       2.32938000       6.08368006      -2.05660737      -1.28632221       0.16010148
Al       0.80958999       2.02282996       6.13870992      -1.06756872       1.37028743       1.03649254
Al       2.41526999       2.11393998       1.05356006       0.64575056      -0.81102446      -0.53171533
O        0.93777599       2.24978999       0.06012608      -0.69196275      -0.58600582       0.85515583
O        3.98356000       2.11195998       0.10245205       0.26281598       0.01825164       0.09632157
Al       4.97960002       2.09504001       3.22847998      -1.08697433       1.34094665      -0.52894984
O        3.49306000       2.03793004       4.30497004       0.15667484       0.09784096       0.07926253
O        0.80481802       2.04093003       4.27857010       0.68320415       0.73002726      -0.59658921
Al       0.68203397       6.37824999       3.27847000      -0.60270136      -2.07912021      -1.27193771
O        2.02085003       6.27414997       2.08788002       1.25388810       0.14017944       0.59566456
O        4.71994001       6.28724001       2.22232002       0.26130125       1.34361420       0.25121012
40
Lattice="5.587 0.0 0.0 0.0 8.413 0.0 0.0 0.0 21.43792265" Properties=species:S:1:pos:R:3:forces:R:3 step=0 confid=0 wdir=cand4 energy=-286.77693169 pbc="T T T"
Al       1.42019998       8.20647002       2.99020990      -0.77689000       0.41392959      -0.70442331
Al       4.94379998       4.72289002       6.24996009       0.52410847       0.97034579      -2.51976254
O        0.10874900       3.39838003       7.10311995       0.04412863      -1.40666624      -0.30869434
O        2.59028003       8.02481997       4.34182998       0.11268237      -0.41851270      -0.25409033
O        3.38459002       3.69984996       5.96728007       0.72729981       1.61115988       4.36033986
O        5.47031997       7.58854998       3.99428995      -0.43445643      -0.29621991       0.74934601
Al       2.91476002       5.19450000       2.17686991      -1.45534433      -2.14840513      -0.85131580
Al       0.40672500       0.81165402       0.47750700      -1.77881729       0.40944228       0.12629008
O        0.25895002       7.59658002      21.23405058      -0.49048289      -0.39936519       0.83815786
O        3.14354002       3.16270002       2.39242007       0.47214198       4.24746126       2.40852107
O        2.93208000       7.14266998      21.15159990       0.61463080      -1.07904947      -0.97068452
O        0.56108302       3.79018000       2.14253000       0.24885370       0.71218400      -1.35905032
Al       3.96125999       0.35480902       3.40879006       2.60325378       1.15078598       0.26509212
Al       0.63647501       3.59839002       0.33995808       0.08486084      -1.99265189       1.46034977
O        5.58261001       5.12622001      21.09649994       0.24208662      -1.14136260      -0.75228285
O        2.94238997       0.66730200       1.99534001      -1.02557310      -1.14759401       0.88998145
O        2.45058000       4.62862000       0.26563709      -0.33752356      -0.52680199       0.85296175
O        0.01035143       1.08022003       2.54445996       2.05087898      -1.05099645      -1.64281950
Al       3.05335997       3.45677004       4.35465007       0.01530961      -1.23314648      -4.68364511
Al       5.35127000       7.48224003       5.85263006      -0.22862054       0.46723828      -0.96084276
O        5.31858002       0.77140404       6.37215989       0.16985733       0.37052458       1.27002299
O        2.35221002       5.16226997       3.91211003       0.50551885      -0.74007898       0.72403988
O        2.46126999       1.21682999       7.12007006       2.80819949      -0.48455305       1.47534711
O        5.20082002       4.33972002       4.10505005      -1.17999255       1.49908367       3.59555093
Al       1.53552002       6.07008996      21.20048265       0.93482980       3.34400677       0.89144562
Al       4.43178998       6.33972998       0.16250095      -0.93319218       2.81737502       0.17713659
Al       2.52320999       6.44978001       5.14079006      -3.11472759      -0.78183573       0.31355871
O        3.87726000       6.45726001       6.10025993       3.11173323      -1.23124508       1.84276731
O        0.88687798       6.13638003       6.05996993       0.41046244       0.11865920       0.30939603
Al       3.84304002       2.03711002       6.50264996       2.93828970      -1.18389396      -1.12936281
Al       1.19413001       2.02987997       6.51883001      -4.20513066       1.01642589      -1.64310668
Al       3.20166002       2.24508998       0.99696802       0.46051806      -1.94675771      -0.85928855
O        1.59690997       2.02025003       0.25290703       1.66205559       1.16857619      -1.19951108
O        4.80794000       2.15313000       0.11263099      -1.11447530       0.65648930       0.27095235
Al       0.21943998       2.65930000       3.64521990      -0.11121485       0.57069393      -1.30205886
O        4.28801999       2.02214001       4.44167003      -0.61541931      -1.77334836       0.25513771
O        1.68369000       2.27955998       4.72624001      -2.15202887       0.83613604      -0.49501631
Al       0.30397001       5.49055003       2.90725007      -1.63079662      -0.61079311       0.33081257
O        1.53769001       6.53487002       2.10491009      -0.62393783       0.17554868      -0.50666436
O        4.31251999       6.21706002       2.05888994       1.46692381      -0.96278829      -1.26458772
40
Lattice="5.587 0.0 0.0 0.0 8.413 0.0 0.0 0.0 21.43792265" Properties=species:S:1:pos:R:3:forces:R:3 step=0 confid=0 wdir=cand5 energy=-290.60197041 pbc="T T T"
Al       2.09284997       0.60011797       4.03160008      -0.60571787      -0.28162752       1.22672052
Al       0.51123899       4.91799002       6.15314000      -0.90849187       0.65831501      -0.62252266
O        5.19091003       3.34103997       6.40379991       0.21564555       0.53301791       0.58059312
O        3.30325000       7.71043996       4.21814002       0.69678405      -0.67045606      -0.50207533
O        2.27298999       3.27752998       6.24656990      -1.19475994       0.01941463      -0.61586317
O        0.70403899       7.77976998       4.26412994       0.21548516      -0.25912663      -1.01059292
Al       3.48331002       4.77250998       2.34755007       0.86642857       1.43045427      -0.21776213
Al       5.19029998       0.76062000       0.26160504      -0.31348710       0.41591779       1.13650871
O        0.54432398       7.60069002       0.01539136       0.98463489       0.40892484      -0.87485148
O        2.23336001       3.55865004       2.30005993      -0.66002765      -1.23728130       0.04607875
O        3.59503002       7.48782003       0.11356890      -0.42134532       0.74832494       0.14031997
O        4.91310003       3.61080996       2.19860003      -0.05866879      -1.09161474      -0.01258664
Al       3.63141999       7.74311000       2.33166993      -2.08957309       1.65358961       0.96290382
Al       5.01935002       3.59916999       0.34979594       0.87470279      -0.70983208       0.51818226
O        0.61399901       5.05457003       0.08884454       0.21659751       0.38627523      -0.76528689
O        2.30744000       0.75232403       2.32026003       0.81039402       0.13925645      -2.21116494
O        3.63402001       4.93367000       0.33288892       0.01602626       0.64409874       0.02464026
O        4.92370002       0.58723598       2.06815006      -0.02807636       1.41699461       0.62800413
Al       2.09223998       3.55600003       4.19194996      -0.05881429       0.36262176      -0.12612838
Al       0.61724500       7.68948999       6.01681989      -1.22923298       0.48464569       0.58925673
O        5.06854998       0.83797703       6.35092006       0.25979747      -0.51436437       0.42723509
O        3.35584999       4.84700003       4.20045009      -0.48594539       1.19500841       0.24487369
O        2.05303003       0.74081799       6.19426994       0.46571488      -0.38122661      -0.30517526
O        0.61753899       4.93813999       4.35600002       1.63912833      -1.59686211      -0.10689823
Al       2.08883002       6.46288999       0.18094593      -1.22517389      -1.03824088       1.36506508
Al       4.94826002       6.32271999       0.39087807      -0.32718090      -1.12898872      -0.34277844
Al       3.29567001       6.28054999       5.37651009       2.03871396       0.20773189      -1.29649259
O        4.87841001       6.36083996       6.27825000       0.47327332      -0.46156104       0.17008496
O        1.86359000       6.35277997       6.32056010      -1.73462740      -0.95479378       1.31366564
Al       3.62313000       1.94858002       6.03061991       0.94661788       0.22850407       2.91001434
Al       0.83663900       2.05271000       6.17978991      -0.80416668       0.70409797       0.11945943
Al       2.31799998       2.16700001       1.12424990       0.22283674      -0.36366873       0.19662183
O        0.81635099       2.09912999       0.17507901      -0.85001176       0.65046420      -0.16930830
O        3.81435999       2.16959004       0.01724874       0.62639043      -0.54346023       0.39696664
Al       4.97184001       2.12540000       3.22037001      -0.16726919      -0.58577999      -0.97158738
O        3.52169003       2.14731999       4.35205008       0.34616456      -0.56699745      -2.82829474
O        0.92252600       2.05107998       4.20290002      -0.76604469       0.88012583       0.23928848
Al       0.71495699       6.28534002       3.25923010      -0.28177467       0.92000435      -0.46926394
O        2.08514003       6.41532003       2.03250008       0.34593928      -0.52279773       0.66723280
O        4.68184002       6.33486003       2.29997010       1.94911420      -1.17910827      -0.45508283
40
Lattice="5.587 0.0 0.0 0.0 8.413 0.0 0.0 0.0 21.43792265" Properties=species:S:1:pos:R:3:forces:R:3 step=0 confid=0 wdir=cand6 energy=-286.33311044 pbc="T T T"
Al       2.27704001       0.63104500       4.10175997      -0.43021572       0.41483097       1.13170542
Al       0.39309400       5.16774002       6.22349004      -0.36001541      -1.83716417      -0.64865547
O        5.22449002       3.41150002       6.80968003       1.37348028       0.74636401      -1.26666045
O        3.46809002       7.67193997       4.12553999      -0.30777698       0.05894794       0.00233587
O        2.44319002       3.53990999       6.17805001      -1.20369487      -0.69898808       0.60620961
O        0.78840397       7.68872996       4.30169004       0.09159235      -0.02102646      -0.35125937
Al       3.31179001       4.83478999       2.29122000       1.23451453       1.30557260      -0.44704970
Al       5.16469001       0.55622600       0.48202204       0.70726330       0.51673109      -2.33715153
O        0.66839102       7.41698998      21.07330968      -1.04278638      -0.56845172       0.78690092
O        2.29765001       3.45867003       2.28105993      -2.17107275      -0.32556134      -0.39061620
O        3.73101000       7.80137002       0.10743293       0.97607656       0.23209875       1.97473965
O        4.66806002       3.35930997       2.26168991       1.10767434       3.24238250      -0.13384847
Al       3.52054000       7.77766000       2.18673007      -0.57057494      -0.19429767      -0.33046047
Al       5.30386000       3.29194002       0.67597093      -0.10079108       0.48359778      -3.71178522
O        0.27040700       4.75298997      21.06996558       1.24664513       0.97121695       2.09173254
O        2.37750003       0.84172402       2.31376005       1.36915670      -0.90780545      -0.65056412
O        3.32449999       5.14482999      21.22360066      -1.56317343       0.93849958       1.06899532
O        5.21975001       0.70043996       2.22982994      -1.95392868      -2.39679324      -0.17140401
Al       2.30511999       3.49644002       4.34093001       0.06947182       1.60216006      -1.80228444
Al       0.25035800       7.70990001       5.98278998       0.90992341       1.74886453       0.92485732
O        5.19025998       0.77979803       6.73157010       0.59750489       2.33610022      -1.42587968
O        3.33457000       5.03734996       4.05367000       1.27976883      -0.01427946       1.99100291
O        2.33480998       0.95249900       6.24082989      -0.40441930       0.57861285      -0.67676916
O        0.94699197       4.84837000       4.39700990      -2.41764889       0.94534341       1.11211487
Al       1.73202000       6.04645002       0.00925990       1.34068569      -0.76203637       0.81598685
Al       4.75623997       6.21570999      21.38987919      -0.63523184       0.75678742      -0.21195377
Al       3.00851000       6.34777003       5.35197996       1.99071755       0.18617233      -1.24605468
O        4.65318999       6.50665997       6.33885994      -0.61378602      -2.80966591      -0.66138965
O        1.68017002       6.43902004       6.51819995      -1.40185554      -0.19289402       0.07903518
Al       3.84775003       2.30498003       6.26455010      -1.31916137      -1.90130578       0.03524697
Al       0.92278797       2.13871997       6.24945994       0.88650963      -0.71001402       0.90277006
Al       2.48648999       2.23425000       0.97040107      -1.04520787      -1.64070699       1.39451203
O        0.79758498       1.95189996       0.34698607       1.89014226       0.17581167      -0.46527741
O        3.95357999       2.25868001       0.02566419      -0.03634403      -0.94745916       0.30110257