40
Lattice="5.46629236 0.0 0.0 0.0 8.20619429 0.0 0.0 0.0 14.73299814" Properties=species:S:1:pos:R:3:forces:R:3 step=0 confid=0 wdir=cand0 energy=-286.72546591 pbc="T T T"
Al       2.13991997       0.48544801       6.40438995       0.45297465       2.20251334      -1.15171608
Al       0.65022499       4.92477000       8.56822995       0.39003320       0.25126590      -1.05452377
O        5.19324001       3.49190997       9.11627995      -0.99870978      -2.49136737      -0.48993977
O        3.49472998       7.43611000       6.42803994      -0.65973927       2.14862514      -0.57844369
O        2.14837999       3.27035003       8.46129004       3.32115796       0.51989422       0.74440971
O        0.85623998       7.55323004       6.64655005      -1.18294487      -1.15771588       0.89710929
Al       3.43036002       4.85458997       4.72570006       1.76084785       0.51907168      -0.91978375
Al       4.95252002       0.84909599       2.68390187       0.54809878       1.34956798      -2.73283990
O        0.54203001       7.71385997       2.20930191       0.79384151      -3.65593511      -0.34720165
O        2.45023002       3.39095999       4.51351998       0.01181691       2.02120672       2.75691320
O        3.43865998       7.70515000       2.77440182       0.68964209      -1.38316365      -3.16689203
O        5.12385002       3.77398001       4.49297997      -2.00767948       0.55864316      -1.40214149
Al       3.57237998       7.65299003       4.50416998      -0.94353668       2.10728532       3.33608934
Al       4.86133002       3.56396003       2.55270187       2.02033747       0.27027718       1.34045940
O        0.50930102       4.94409001       2.20230182       1.91369582       1.64459057      -0.97667050
O        2.22462001       0.82010096       4.54843999       1.41236148      -1.05071126       0.66987015
O        3.47353001       5.08669003       2.61060182      -0.39760259      -0.00682913      -0.79388386
O        5.04308998       0.99242201       4.33243995      -1.60293444      -4.10910818       1.02723756
Al       2.30963999       3.48379002       6.46577999      -1.13216988      -0.56910645       0.89750346
Al       0.61547200       7.71235996       8.57503998      -2.30450960      -3.33287086      -0.53265865
O        4.72793002       0.79828996       8.89893007       2.00614295       0.57733479      -0.07617963
O        3.44567001       4.95999000       6.58073995      -0.57773347      -1.03885135      -0.89185943
O        1.89872999       0.54976201       8.84278998       1.36150405       4.18091848      -0.84216954
O        0.80848601       4.62730999       6.72582993       0.33271878       1.53261649      -0.31519135
Al       1.96698999       6.42878997       2.55070187       0.33144195      -0.49855389       0.94502770
Al       4.89149002       6.20648999       2.63430191      -1.28198422       2.04462363      -1.21698514
Al       3.39932000       6.37405999       7.84659002      -1.39089521      -1.45419708      -0.51949645
O        4.84732002       6.18565996       8.75739001       1.02480133       1.32933110       0.14789999
O        1.89291998       6.22699998       8.91493997       0.08084566      -0.52139769      -0.84472515
Al       3.77254003       2.21613004       8.64342997      -0.94591129       1.21515192      -1.38815761
Al       0.87077299       2.14791998       8.46894000      -1.50363992      -2.23784677       0.50152526
Al       2.21985001       2.22920997       3.31383994      -0.72143953      -2.24336189      -0.53236936
O        0.71686199       2.22600004       2.34370192       0.28823164       0.27617908      -0.02259737
O        3.74744001       2.24027003       2.35560191      -1.37469708      -0.73444429      -0.63470740
Al       4.96038001       2.26593999       5.32290994       0.57895448       1.61560084       4.30628670
O        3.68645002       2.11140004       6.64725001      -1.19764868       0.41746603       0.98076710
O        0.92999699       1.99386001       6.58757003       0.59255407       0.42588407       0.27952242
Al       0.67322900       6.11727996       5.62421007       0.64333202      -0.98345017       0.78816636
O        2.08073998       6.17913998       4.42118003       0.12778111       0.28106919      -0.05889222
O        4.83988002       6.32627999       4.39211993      -0.45933978      -0.02020580       1.87123820
40
Lattice="5.78503957 0.0 0.0 0.0 8.39685877 0.0 0.0 0.0 22.71053867" Properties=species:S:1:pos:R:3:forces:R:3 step=0 confid=3 wdir=cand3 energy=-286.23238873 pbc="T T T"
Al       1.50394998       8.38172461       2.78705002      -0.57649164       1.93336674      -0.83939307
Al       0.43698297       4.64526000       5.70423007      -0.55566627      -2.42946439       1.13676323
O        5.62313858       2.98923000       6.43082991       2.19674540       2.35554722      -0.71527082
O        2.93811000       7.95340000       3.75604989      -1.58124651      -1.95943940       2.54175366
O        2.09991001       3.81524999       5.53954006       1.26433515       0.91179765      -1.80521840
O        5.76972779       7.49389996       3.54216998       0.77520769      -1.27151322       1.58721504
Al       2.90493998       5.22838002       1.66935995      -0.98061848       0.96485018       2.70586995
Al       5.62706159       0.94287403       0.18670493      -0.88689473       1.44002308      -0.35137765
O        5.57446997       7.75274002      22.15598774       0.50649348      -0.93659021       0.15359567
O        2.48843003       3.38363003       1.92646005      -0.52012415       2.38813630       2.20510432
O        2.76493999       6.59967002      21.66340002      -0.51456240       1.18805281       0.23823448
O        5.37627000       3.92321999       1.78268008       0.18570144       1.42009057      -1.64352339
Al       4.20182997       8.39197003       2.67601002       0.21938709      -0.43048007      -2.01930616
Al       5.13642001       3.71625001      22.68822398       1.87029629      -0.16176262       0.77465899
O        0.17388041       5.22801996      21.92620001      -2.30382904      -1.10816814       0.39321932
O        2.93486003       0.70400398       1.38262009      -1.99117807      -0.84938524       2.07373225
O        3.60239002       4.67454001       0.23458192       1.21086057      -0.34552467      -2.77452452
O        5.50329999       0.93222102       1.94326994       2.19231320       0.11174106       0.09404374
Al       2.90264002       3.34873999       3.69041007      -1.49346102      -1.89682893       0.37663624
Al       5.73934001       7.31010003       5.45229003      -0.18662897      -1.23504939      -1.40087086
O        0.07756043       0.52506297       5.76719004       0.93906967       1.56134085       1.00995072
O        3.27113998       5.03417999       3.51848993      -0.20283877       2.27175527       0.68650337
O        2.90699997       1.61086002       6.81101000       1.92494449      -0.61807750      -2.84065890
O        0.13776002       4.48176996       4.01248003      -0.09650327       1.13827667      -1.16774002
Al       1.17792997       6.58212999      22.37314273       1.79403654       0.30780913      -0.02200706
Al       4.35900001       6.23934998      22.28019258      -1.03704067       1.54495875       0.15551697
Al       2.83773997       6.09750999       5.05345005       2.54054698      -0.18614387      -1.63989848
O        4.42614002       6.21944002       5.83707991       0.20762900      -0.42851816      -0.05865315
O        1.31529001       6.17401998       5.88255004      -0.81629154       1.64536262       0.06645963
Al       4.66234001       1.73882999       5.80695006      -4.63505814       0.21263152       1.31130023
Al       1.62392002       2.15070003       5.74058010      -1.03316263      -1.87395535       1.82367375
Al       2.67104001       2.39171003       0.60395589      -0.21559161      -3.72264749      -1.32411045
O        1.04817998       2.17648998      22.58677963       0.37967497       1.07729623      -0.54253084
O        4.30747000       2.17183996      22.58319273      -0.43716471       0.28633395      -1.36535441
Al       5.77440001       2.92919002       3.08578990       0.33212809      -2.91979053       0.95090971
O        4.29032997       2.19608002       3.96964001       0.07286088       0.52108248       0.66043459
O        1.38905002       1.89639999       3.66041990       0.56605276       0.65807873       2.17506665
Al       5.55233855       5.62012002       2.59885006       0.29686550       1.37454489      -0.12120729
O        1.32335002       6.26387997       1.64820008       0.47209811      -0.27032177      -0.95620630
O        4.25282001       6.73256996       1.75437004       0.11710529      -2.66941575      -1.53279071
40
Lattice="5.587 0.0 0.0 0.0 8.413 0.0 0.0 0.0 21.43792265" Properties=species:S:1:pos:R:3:forces:R:3 step=0 confid=7 wdir=cand7 energy=-286.94431057 pbc="T T T"
Al       1.32490001       0.17460702       3.23267002       0.81909354       0.23536206       1.75830587
Al       0.86155898       4.51924999       6.27433008       1.82646977       1.09018629       0.30561563
O        0.21233701       3.10095003       7.14984991      -1.81074393      -0.53285145      -0.40360187
O        2.73114997       7.93188998       4.25584997       1.20718870      -0.53935203      -1.17081191
O        2.41363998       3.45391996       6.17901000       0.26542461       0.03447067      -0.85565535
O        0.06601638       7.57623999       4.03075993      -0.87766715      -1.54975604      -0.76108799
Al       2.90654998       5.06468001       2.18738993       1.17112826       0.04252839      -0.13813107
Al       5.53247999       1.01002002       0.50297997       0.06270701       0.26070857      -1.03321400
O        0.22865999       7.73322001      21.29853371       0.61390799       3.26052901      -0.06913239
O        2.15639998       3.09741000       2.61603990       0.06532356       2.16096831       0.56442727
O        2.94815000       6.92030000      20.55240010       0.30454563      -0.27260316       0.55438482
O        5.23698998       4.05302997       2.31008001      -1.04894558      -1.31086091      -2.14912500
Al       3.99332998       0.07534018       3.05390004      -1.87343810      -2.06073150       0.95103162
Al       4.98546000       3.66977996       0.30102402       0.01306894       0.46073099       0.42779239
O        0.12910998       5.30147997      21.18600005      -0.89607039      -0.70717113      -0.74687102
O        2.35742001       0.62478800       1.85144010       1.67105570       0.42656469       0.25405107
O        3.14225998       4.18430003       0.45951909       0.56801002       1.33377205       1.62044969
O        5.36851098       0.84408798       2.32222996       0.36043538       2.10953189      -1.33139467
Al       2.56926000       3.06157003       4.35205994       0.05616494       1.25700299       1.70616760
Al       0.19247802       7.45007999       5.91443002       3.37436338       0.37758341      -0.74200205
O        0.16150497       0.58176400       6.63441000       0.52063025       2.35816951       0.36184996
O        3.20686001       5.16880998       3.95919993       0.34768059      -1.16184589      -0.54708723
O        3.08919002       1.13434002       6.99821991      -0.99424309      -0.38636765       0.82818207
O        0.64945601       4.46819999       4.57773995      -1.11801224      -0.20094287      -3.05340923
Al       1.54290000       6.47937997      21.42338367      -0.90283223      -0.55923304       0.36859105
Al       4.46537003       6.68309000      21.31854772      -0.80028471      -2.10099525       0.92271992
Al       3.08513000       6.32101997       5.27818999       0.31381183       1.80552335       0.81196204
O        4.45610002       6.67175003       6.33837994      -3.64204415      -3.53813337      -0.03324038
O        1.65865001       6.37102003       6.33529010      -1.90835592      -1.45255827      -0.27289913
Al       4.42359999       2.01257999       6.45177991       0.75305115      -0.65687934      -0.26777345
Al       1.51712002       1.77160996       6.73162005       0.39567673       0.64020333      -0.46510540
Al       2.46990001       2.53292000       1.02115000       1.13450018      -1.84696697      -2.50464465
O        0.88523601       2.52723996       0.14652391       0.41402618      -0.84223966       0.68048163
O        4.09647003       1.97405997       0.04369413      -0.54255864       0.17745256       1.19314709
Al       0.11520198       2.68677997       3.37401003      -1.03564578       1.72153242       1.94224177
O        4.18356001       2.22685001       4.54820000       0.26466178       0.10600088      -1.11045958
O        1.13284001       1.68968997       4.40976997       1.89631430       0.19369611      -0.15734748
Al       0.07258999       5.72214999       2.81285997      -0.01825241       0.20641328       1.58166993
O        1.56196999       6.23459002       1.82987998      -0.25946652      -0.79546099       0.50186168
O        4.31516001       6.50618001       1.78691002      -0.69067958       0.25601879       0.47806075
40
Lattice="5.587 0.0 0.0 0.0 8.413 0.0 0.0 0.0 21.43792265" Properties=species:S:1:pos:R:3:forces:R:3 step=0 confid=9 wdir=cand9 energy=-286.20415603 pbc="T T T"
Al       1.42284000       0.30298797       3.36471991       1.34569142      -0.19508789      -1.05205968
Al       0.52257401       4.72991000       6.22426009      -0.60997906       0.82949579      -0.60862816
O        5.25722001       3.28726003       7.08869995       1.87582671       0.01903805      -0.87743680
O        2.91946998       7.82500003       4.04755997       0.22460574      -0.00676966       0.73550077
O        2.19180999       3.61057002       6.12826000      -1.62496127       1.07622187       0.38867553
O        0.07629009       7.42657003       4.06510992       1.33897367       0.87285949      -0.03928669
Al       2.92127000       5.04476997       1.99227996       2.42665253      -1.66279331       0.86709055
Al       5.52517001       0.91227299       0.51659905      -0.97452288       0.15336148      -1.33559020
O        0.36789199       7.55815002       0.00227735      -1.72549089       2.74675822       0.49478203
O        2.38771999       3.23690999       2.44449000       0.57719316       1.45035674       0.24249510
O        3.09160003       7.40505000      20.95000003       0.67674717       0.98961146      -0.71789088
O        5.47738999       3.82377000       2.18922008      -1.23929861       0.32731229      -1.52313924
Al       4.40248002       7.96532004       2.91695995      -3.82004062       1.36152595       0.00319041
Al       5.45063999       3.74957996       0.35451593      -1.32478956      -1.64262199      -1.58617008
O        0.39430303       5.15229998      20.74940003       0.66963678       0.20388234       2.13869592
O        2.57354998       0.50417401       1.94061993      -0.21544289       0.13208229       1.03580381
O        3.55975001       5.08698001       0.24616909      -2.39659049      -4.03847466       1.20769195
O        5.43767999       0.88680398       2.34568004       0.29673128      -0.26366317       0.44501693
Al       2.43835000       3.30924001       4.37661001       3.75809382       1.10374716      -2.16765287
Al       0.06948138       7.43092998       5.93415998      -0.41005473      -0.00961735       0.72267375
O        5.42468000       0.61217203       6.72976009       0.35170675       1.13470942      -1.14912295
O        3.47652002       4.88325998       3.79512007      -1.94453447       1.86775176       1.53595581
O        2.54991999       1.18722001       7.20084001       1.17650151       0.44210680       0.07229737
O        0.42879298       4.66108998       4.37571004       1.36800660      -2.38844607       1.90238894
Al       1.77679998       6.42348997      21.33150009      -2.22957661      -1.07370717       0.08589311
Al       4.45013998       6.51114998       0.08077745       2.34820022       1.02875955      -1.68471098
Al       3.03305000       6.37049001       5.01311994       0.71420134      -1.95121032       1.30426911
O        4.41128999       6.11296000       6.19154990       1.68152491       0.66677430      -0.37142767
O        1.59585001       6.46067998       6.10101991      -1.48010567      -1.30234915       0.35046228
Al       4.02707999       1.99294001       6.75964992       1.62442377      -0.90149589      -1.89166371
Al       1.30531997       2.08327998       6.48451990      -3.11920457      -1.34027117       1.18136822
Al       2.56223999       2.07856003       1.18266995       0.80999138      -0.51970503      -2.65263868
O        1.01977002       2.22033002       0.15098793       1.28911127       1.00156641       0.62622428
O        4.07959002       2.25275002       0.16109698       1.17787146      -0.58307185       1.22669241
Al       5.43653002       2.88408998       3.68005996      -3.10229767       0.54689740       0.00984857
O        4.05743003       2.33488000       4.75935003      -0.35430618       0.36207771      -0.33895465
O        1.17096000       2.00179999       4.34441003       1.14877853      -2.34606521       1.49156816
Al       0.17855499       5.46369001       2.88107008      -1.47361267       1.46702882      -0.92782327
O        1.52963998       6.01586002       1.91200009      -0.79288042       0.66007084      -0.55011511
O        4.28879999       6.49595998       1.95489008       1.95721924      -0.21864624       1.40572661
40
Lattice="5.56254815 0.0 0.0 0.0 8.11397753 0.0 0.0 0.0 19.51625331" Properties=species:S:1:pos:R:3:forces:R:3 step=0 confid=10 wdir=cand10 energy=-286.70333559 pbc="T T T"
Al       2.07886998       0.84921903       4.82229991      -0.78748176      -2.25137587      -0.98460400
Al       0.50248800       4.98633000       6.70685998       1.37832956      -1.15701454       2.99370707
O        4.88123001       3.26215002       7.43635997       0.94301770       1.86038897      -1.79789979
O        3.53894003       7.71766003       4.93485991      -0.43273669       2.53181309      -1.72602639
O        1.97256001       3.45076997       6.88038992       0.41624169      -0.25070982      -1.13169772
O        0.84865700       7.52792003       4.89670992       0.14488149       0.24139981      -0.07424195
Al       3.63254998       4.78351001       2.81482004      -0.87519775       0.20846584       0.02896996
Al       5.35442002       0.76579103       1.14333999      -0.56112179      -0.19965424      -0.91805418
O        0.53765799       7.37550999       0.50364678      -0.73366202       1.41917227      -0.65222579
O        2.27192000       3.66971000       3.10964993       0.49157419      -1.80632715      -2.49534861
O        3.38934998       7.39295999       0.49144678       0.48806660      -0.34649906       0.90339056
O        5.06027998       3.66957003       2.89372991      -0.91107055      -1.40513260       1.05385854
Al       3.57314997       7.44936001       3.18067992      -0.59456132       3.07327398      -1.51738178
Al       5.50870997       3.35092001       1.21302004      -0.70665142       0.84668407      -1.12034384
O        0.56280900       4.99919000       0.85064674      -0.58405065      -1.78855955      -1.63354247
O        2.48045998       0.97079197       3.02156996       0.20205979      -1.71543195       1.07558682
O        3.40056001       4.91537002       0.86034670       0.17788002      -0.02777872       1.39265617
O        5.01170998       0.73007403       2.85915004      -0.77376420      -0.08436634       1.02582160
Al       2.15057000       3.61364996       4.88636006       0.12440508       1.65116346       0.85736445
Al       0.50900898       7.71842997       6.70795992       0.45221928      -2.64002024       0.47775228
O        4.91164001       0.94076198       7.13602005       0.75902135      -1.41285469      -0.79674132
O        3.44410003       5.14596001       4.70060007      -0.08254021      -1.41856731      -0.54486507
O        2.01530001       0.97813699       6.97333003      -0.43557952      -0.86806177      -1.41043803
O        0.84206099       4.75278003       5.06946994      -1.60716052       1.42214177      -3.78547538
Al       1.84148001       6.23774997       0.96613397       3.24223729       0.33170668      -3.38669104
Al       4.76068002       6.20705000       0.60744670      -2.22610100      -0.41324136       0.54730457
Al       3.31387999       6.42051999       5.91762992       0.21157534      -3.29902350       4.39440512
O        4.97038002       6.25920998       7.00041995      -2.54632653       1.51646295      -0.94874738
O        1.90385002       6.19918001       7.02192003      -0.29782582       1.19154859      -0.25778207
Al       3.54989001       2.15727002       6.83126009      -0.22252172       0.37156968       2.87102791
Al       0.64155599       2.17781997       6.76676005      -0.54899519       1.45182986       2.94296828
Al       2.59339000       2.21983999       1.87207006       0.31128320       0.49421386      -1.43452998
O        1.09203000       2.02140001       0.97537199      -0.00216007       0.85717343      -0.31494262
O        4.12716998       2.16351998       0.78914673       0.09186302       0.27968284       0.68893249
Al       4.74282997       2.20609004       3.94508004       2.55961668      -1.32580735      -1.50484975
O        3.36737997       2.18483004       5.02121991       0.20562190       1.20178337       0.82579134
O        0.67973599       2.11361999       4.97832006       0.50844959       0.35828254      -1.15837040
Al       0.61228898       6.06007001       3.71189009       1.45309583       0.48467189       3.44714955
O        1.90969999       6.48368998       2.61748008       2.46981671      -0.20784335       3.42946027
O        4.80351999       6.20050998       2.64888993      -1.70174755       0.82484044       0.63865254
40
Lattice="5.4743366 0.0 0.0 0.0 8.46923081 0.0 0.0 0.0 20.46717793" Properties=species:S:1:pos:R:3:forces:R:3 step=0 confid=12 wdir=cand12 energy=-285.62711221 pbc="T T T"
Al       2.19624001       0.76061196       4.36657990      -2.34635527      -0.24598008       0.35197327
Al       0.38085699       5.05572004       6.63913008       1.76651165      -0.74405135      -2.10847476
O        4.79091002       3.43098000       6.88664007       0.91453901      -0.96097360       0.75843281
O        3.46103999       7.92112997       4.44861992       0.13797533      -1.32270007       1.40191121
O        1.96165998       3.68529000       6.58355002      -1.47191546      -0.47937408      -0.32942812
O        0.90429001       7.92002999       4.60410007       0.00435955       0.35477854       1.31914709
Al       3.61230998       4.56693998       2.65932990       0.85258417       2.08584780       0.08310812
Al       0.02203338       0.42783403       0.65044303      -1.57114749       4.28846433       1.50401154
O        0.82872500       7.45960999       0.39452205      -0.89703378      -2.59796709      -1.04873867
O        2.07380998       3.59881001       2.57929996       1.53966921      -1.00715784       0.06139235
O        3.43696003       7.51939997       0.62710492       1.56663601      -0.74962289      -0.25343331
O        4.80050998       3.10026001       2.24448006      -1.52334921       1.51838746       1.27572993
Al       3.53466002       7.71592000       2.63097999      -1.07489254      -0.61380428      -0.97393372
Al       5.21011999       3.29379998       0.40038610       0.13491714      -0.90823917       0.96680471
O        0.76886702       4.80766999       0.21822207      -1.48037386       1.61873001       0.03488783
O        2.51163001       0.84306602       2.64171994      -0.54958235       0.59881752      -1.60301030
O        3.55961002       4.98963996       0.76803392       0.31839564      -1.28901025      -1.22805202
O        4.90455998       0.37450803       2.47103002       1.80836379       1.31223912      -1.19711589
Al       1.91600002       3.70739003       4.41037004      -0.44587167       0.23458492       1.75878474
Al       0.61586002       8.04912004       6.53695997       1.44018893      -5.08304805      -2.29529525
O        5.14299001       0.94246998       6.61408992      -3.06601604       0.45284812       2.16004056
O        3.46804999       4.96281003       4.54362999      -1.79517816      -1.29556492      -1.30695860
O        2.13269999       1.04958000       6.73093990      -1.01024628      -1.77653092       0.71423156
O        0.63019901       5.01688997       4.63418006       0.86372907      -1.85486983       1.70598332
Al       2.13250001       6.08728996       0.66837698      -1.52653639       0.53812918       0.81777689
Al       4.82315999       6.29085004       0.67618603       1.43027569      -1.13660890       0.21851126
Al       3.32162003       6.42073002       5.51113007      -0.14788780       0.45969096       2.22240838
O        4.85161001       6.47245000       6.60610997      -3.96316909       1.47552178      -0.53913241
O        1.58943000       6.57168999       6.81724999       3.58577427      -0.57293668      -0.26330369
Al       3.61445001       1.87762000       6.60281005       1.65929168       3.73294369      -1.38534952
Al       0.79699799       2.28184004       6.66471999       0.19286112       2.76009114      -1.82839685
Al       2.61083003       2.19715002       1.43682004      -1.46335018      -0.53453444      -1.75735573
O        0.99483701       1.96985001       0.22692206       0.29381384      -0.75534987       1.67440895
O        3.83456000       2.04253998       0.09272205       0.96776830       0.42958400       0.68114219
Al       4.65451999       1.88779002       3.54888994       3.32122388      -1.16010372      -1.03256419
O        3.38635001       2.18478003       4.70466002      -0.53344412      -0.13422837       1.22406022
O        0.76482701       2.06665001       4.61883009       0.48758600       1.14446269      -0.47287004
Al       0.71149197       6.42072002       3.70048010      -0.43910278       0.91684957      -1.66648818
O        2.04436998       6.30248999       2.52347000       0.91703535       0.73385586      -0.32031229
O        4.70483002       6.16640003       2.54501007       1.10195284       0.56682972       0.67546661
40
Lattice="5.61931945 0.0 0.0 0.0 8.28906287 0.0 0.0 0.0 21.91973111" Properties=species:S:1:pos:R:3:forces:R:3 step=0 confid=17 wdir=cand17 energy=-286.47233822 pbc="T T T"
Al       1.42582999       0.21501000       3.16363007       0.30752577       0.61581645       0.11380655
Al       0.31798998       4.64383996       6.04123002       1.71719049      -0.58655652      -0.80682501
O        5.44269002       3.06137000       6.77798002      -1.24831961      -0.30776688      -0.33863778
O        3.17573001       7.89883998       4.05096008      -1.74089881      -1.75046698       0.42951597
O        2.06968998       3.55581998       6.07092007       0.46562422      -0.78922404      -0.07657009
O        0.32295302       7.15471000       3.81542994       0.36380216       0.88752562       2.04397844
Al       3.16144997       5.15828996       2.09640001       0.20819595      -1.63693526       1.33645731
Al       5.40732000       1.05943996       0.35986894       1.63093138       2.04208322      -1.81726134
O        0.21951298       7.83277997      21.44789991      -0.54497190      -1.21708054       1.21278533
O        2.17009997       3.46069999       2.24939009       0.81170608       1.74396768       3.22537329
O        3.04112000       7.47103996      21.30209994      -0.19154738      -2.17907540       0.43648507
O        4.91259001       3.81217002       2.14644999       0.44804814       2.30439691      -2.02018225
Al       3.95149999       8.08125996       2.51340010       0.97788366       1.42117340       0.49485824
Al       5.17825002       3.77564004       0.24672499       0.25426908      -0.33349799      -0.20081594
O        0.39454203       5.18647998      21.22620002      -1.68934204       0.95830986       1.84237074
O        2.61876998       0.83795496       1.83459009       0.32049678      -1.51308036       0.95867924
O        3.37032002       4.77578999       0.41048708       1.90431181       1.27643962      -2.88977137
O        5.48352000       0.82175299       2.14493994      -0.93044742       0.07365619      -0.15566252
Al       2.46374999       3.39739004       4.28074002       0.90295371       0.23057424      -1.54205941
Al       0.12939500       7.24839001       5.70200004      -0.95522356       1.53018302      -1.28377225
O        0.07582052       0.52389704       6.37944993      -0.53667603       1.73046318       0.13523578
O        3.19541999       5.10604002       4.12573004      -0.25674649      -1.51799791      -3.58341753
O        2.96573998       0.80274600       6.28883004      -4.96003383      -0.11916030       2.06909674
O        0.70132400       4.25463000       4.06470002      -0.84267488       2.23980386       2.60230987
Al       1.57000998       6.49067003      21.74487720       1.12609753       1.15739558       0.36425267
Al       4.47011001       6.50855003      21.74969997      -0.41390218      -0.30522030      -0.31020485
Al       3.05956002       6.35077999       5.26113002      -2.26286994       2.03241332      -0.50706233
O        4.55601002       5.94154000       5.95870004       2.08825066       0.04563150       1.90000883
O        1.42169001       6.28535002       6.12776999       2.41152907      -2.41585336       0.43608753
Al       4.17683998       1.85294002       6.13582001       3.56280505       1.10942245      -1.08495400
Al       1.29868002       1.90555003       6.28614991       0.91247693      -1.63369450      -0.62223914
Al       2.57416000       2.39758002       0.98479390       1.67060742      -0.18002368      -1.71725342
O        1.11826002       2.51983002       0.14132089      -4.11737755      -0.99189045      -1.04428579
O        4.11713999       2.33228997      21.78063617       0.40118892      -1.34028241       1.55323296