240
Lattice="16.761 0.0 0.0 0.0 16.826 0.0 0.0 0.0 21.43792265" Properties=species:S:1:pos:R:3:forces:R:3 step=0 confid=0 wdir=cand0 energy=-1731.09053285 pbc="T T T"
Al       2.02806005       0.68409906       4.06437009      -0.88776217       0.45082713       1.28668003
Al       0.36612108       4.85587002       6.06094000       0.10520503      -0.22263060      -0.05682193
O        4.94267006       3.23760003       6.55788991       0.51180913       0.65052302       0.24215315
O        3.17592993       7.66866992       4.07562993       1.13832555      -0.35344029       1.42544936
O        2.19594007       3.50254004       6.25129010      -2.31515018      -0.78398327      -0.56852503
O        0.64908095       7.71497995       4.28928006      -0.49049047      -1.64172168       0.07382291
Al       3.58740996       4.83748005       2.31538997       0.38889228       0.19424959       1.20086943
Al       5.01051993       0.66462700       0.29849992       1.06101060       1.97539325       1.00282061
O        0.69484402       7.62218002       0.00000000      -0.75932768      -0.96784064      -0.88316543
O        2.25788001       3.50821999       2.29926008       1.00578515       1.02741358      -0.06490096
O        3.66330997       7.62218002       0.37110802      -0.27621342      -0.66996652      -1.87820558
O        4.86890993       3.49981002       2.11370007      -0.15182167       0.74535424       0.27024840
Al       3.58740996       7.78201995       2.31538997       0.36423293       0.24725299       0.33690609
Al       5.01051993       3.54186997       0.29849992       0.96494861      -1.89633437       1.10469665
O        0.69484402       4.99731998       0.00000000      -0.77237558       0.87412048      -0.86036288
O        2.25788001       0.69827900       2.29926008       0.29709782      -0.58740176      -0.23348567
O        3.66330997       4.99731998       0.37110802      -0.27923296       0.63400874      -1.93526032
O        4.86890993       0.70669200       2.11370007      -0.45456081      -0.85143232       0.47702853
Al       2.20598996       3.61687994       4.13398996      -0.38251566       0.08777675       0.54439201
Al       0.21578497       7.39994002       6.14696009      -0.97069602       4.81176351      -1.64222624
O        4.97409995       0.75595298       6.14998991      -0.62025384       0.26497825       1.53822717
O        3.36003996       4.98504996       4.28878998       0.64347797      -0.32467288      -1.80441240
O        1.99273004       0.98502500       6.09829000       2.16872638      -2.08309717       0.18134411
O        0.89326207       4.86460003       4.22525999      -1.93831683       0.35147883       1.84134773
Al       2.17891005       6.30975000       0.20168905      -2.18503100       0.03687053       1.69170900
Al       4.96132003       6.30975000       0.19362196       2.26088422       0.04115556       2.30800176
Al       3.10406999       6.41048003       5.32426008       0.49781238      -0.93466996       0.84473090
O        4.61446002       6.24938992       6.34451998      -0.55263402       1.52257296       0.20461205
O        1.59728006       6.41245994       6.41157008       1.07131597      -1.68696347       0.10129557
Al       3.54923997       2.03752007       6.11210010       0.00752624       0.35994475       1.02154132
Al       0.78117004       2.14821008       6.10576991      -2.27584201       1.88718670       0.20395214
Al       2.21288996       2.10325000       1.24240994      -0.15701244       0.39777318      -1.71727600
O        0.73746305       2.10325000       0.20168905      -1.65396998      -0.06120007      -0.35683945
O        3.62719002       2.10325000       0.08067562       1.93903067      -0.08160099      -0.37351768
Al       4.89121999       2.10325000       3.20282993       0.94099726       0.21068071      -0.09635309
O        3.49467001       2.19722001       4.37048991       0.33737145      -0.50846591      -1.99274581
O        0.89775402       2.33426004       4.09702991      -0.36550508      -2.37990820       1.52141496
Al       0.86570800       6.23638999       3.16080003      -2.39584857       1.19551931       1.16330996
O        2.20974996       6.30975000       2.08950008       1.43641591      -0.24492580      -1.70919511
O        4.90160997       6.30975000       2.19437997       0.21538981      -0.20594598       0.19111499
Al       7.65875994       0.45578992       4.10381994      -1.43258423       2.35256809       0.10606935
Al       5.69022994       4.87557007       6.16929991       0.97686842       0.28435450      -1.49536681
O       10.55399994       3.29394004       6.21851001       0.10046133       0.40960815       0.90500713
O        8.98266004       7.52077005       4.21303008      -0.14322741       2.69703907      -1.36997340
O        7.67918004       3.15502004       6.43246991      -0.73280848       0.09388538      -0.61476372
O        6.42024004       7.42069994       4.47889998       0.78828617       2.43096383      -1.98723173
Al       9.17441007       4.83748005       2.31538997      -0.31204208      -0.85279460       0.86713793
Al      10.59749993       0.66462700       0.29849992       1.07044472       2.06991162       1.16703636
O        6.28183994       7.62218002       0.00000000      -0.69959255      -0.86952934      -0.90578017
O        7.84487995       3.50821999       2.29926008      -0.23921436       0.49287547      -0.94061128
O        9.25031008       7.62218002       0.37110802      -0.26421007      -0.71058442      -1.66232027
O       10.45589998       3.49981002       2.11370007      -0.06315001       1.06594498      -0.12105266
Al       9.17441007       7.78201995       2.31538997       0.13017844       0.15267435       0.85422732
Al      10.59749993       3.54186997       0.29849992       1.01659966      -2.09781233       1.10834355
O        6.28183994       4.99731998       0.00000000      -0.71337841       0.87070892      -0.84766054
O        7.84487995       0.69827900       2.29926008       0.39482146      -1.18187294       0.17681382
O        9.25031008       4.99731998       0.37110802      -0.29507517       0.79448002      -1.81941055
O       10.45589998       0.70669200       2.11370007      -0.26005660      -1.14592940       0.11672264
Al       7.68386993       3.52128000       4.09711009      -2.36535815      -1.96657390       0.34255995
Al       5.98676002       7.62440004       6.18238004       0.16212566      -4.14411737      -0.55489815
O       10.61200004       0.88361604       6.73669998       0.66519488      -1.66781881      -1.36693044
O        8.69598007       4.85174008       4.10627008       2.23376098       3.51124968       1.22274986
O        7.55981004       0.67553496       5.93564005      -0.02166549       0.42460150       1.75636391
O        6.18031001       4.90959006       4.40585005       0.51088689      -2.79408048       0.34184228
Al       7.76591000       6.30975000       0.20168905      -2.32334562      -0.00090822       1.61493988
Al      10.54830003       6.30975000       0.19362196       2.35783087       0.00645436       1.78455432
Al       8.62023007       6.34488992       5.42222003      -2.89182784      -2.72099785      -0.95137575
O       10.08019999       6.09969994       6.20693011       2.47902144      -0.18158613       1.34019667
O        7.12871997       6.19880003       6.50475001       0.39632957      -0.09493879       0.94045944
Al       9.09993006       2.09197002       6.16299008       0.89898529      -0.50346901      -0.70280125
Al       6.22445999       2.03014002       6.18937009       2.13231388      -0.17093927      -1.35150109
Al       7.79989008       2.10325000       1.24240994      -0.06001626       0.00209124      -1.35330211
O        6.32445998       2.10325000       0.20168905      -1.81866813      -0.04242133      -0.38355961
O        9.21418996       2.10325000       0.08067562       1.93389055      -0.01135468      -0.42726201
Al      10.47819999       2.10325000       3.20282993       1.20662112       0.18007990      -1.82940695
O        9.12089002       2.13652005       4.20003999      -2.04677351      -0.59044883       3.03336640
O        6.45635999       2.08396993       4.15349997      -0.87678901       0.45912369       0.58698220
Al       6.52899999       6.11861993       3.21368009      -3.53004205       0.49997442       1.32412527
O        7.79675007       6.30975000       2.08950008       1.75830600       0.25576408      -1.79571112
O       10.48860003       6.30975000       2.19437997      -1.40285218      -0.27560385      -0.66328715
Al      12.99680004       0.46644297       4.22349993       2.72427585      -0.94213043      -1.70944157
Al      11.53300006       4.81963002       5.94568008      -0.20937644      -0.36079674       1.14181419
O       16.08310001       3.32039001       6.74729010       3.36575824       1.57163435      -0.51589599
O       14.54800008       7.84752996       4.28145993      -0.43270243      -1.97675892      -0.34591206
O       13.13580002       3.41380005       6.02911990      -0.04350208       0.61220166       0.63440490
O       12.04300008       7.47126005       4.25665990      -2.46837393      -0.44124438       0.63146733
Al      14.76139996       4.83748005       2.31538997       0.22475066      -0.23875994       0.49358380
Al      16.18450004       0.66462700       0.29849992       0.87586112       2.00480142       1.13518124
O       11.86879999       7.62218002       0.00000000      -0.98115952      -0.86675251      -0.85802348
O       13.43190001       3.50821999       2.29926008       0.08753411       0.45238300      -0.00666248
O       14.83729997       7.62218002       0.37110802      -0.35440203      -0.78098964      -1.88598850
O       16.04289993       3.49981002       2.11370007      -0.26848850       1.13336226      -0.40784664
Al      14.76139996       7.78201995       2.31538997       0.23844552       0.85266336       1.81995753
Al      16.18450004       3.54186997       0.29849992       0.96097144      -1.92846356       1.28803678
O       11.86879999       4.99731998       0.00000000      -0.86939559       0.89819383      -0.75832402
O       13.43190001       0.69827900       2.29926008       0.01688313      -0.42072768       1.00084038
O       14.83729997       4.99731998       0.37110802      -0.35305357       0.69280942      -1.93460946
O       16.04289993       0.70669200       2.11370007       0.02379484      -0.58166861       0.07986178
Al      13.32720008       3.53630999       4.11158990      -0.68822017      -1.06509423       0.61758336
Al      11.15259995       7.47448005       6.01529008       2.43692672      -0.03094305      -1.52566427
O       16.12580000       0.88589900       6.22397004       1.24246414       0.49110282       1.02114806
O       14.30849997       4.99912995       4.11023996       1.26956337       1.04523314      -0.06984982
O       13.47570002       0.95439293       6.04215009      -1.93715237      -0.20805454      -0.44346490
O       11.80760005       4.68370000       4.24486004      -0.11524773       0.74248697      -1.56330019
Al      13.35290005       6.30975000       0.20168905      -1.90323683       0.09289265       1.80997256
Al      16.13529997       6.30975000       0.19362196       2.30099748       0.03604735       2.06391216
Al      14.15100004       6.28409994       5.27497001       1.47968701       2.08153493       1.14187151
O       15.80580000       6.15457003       6.34097007      -1.14936069      -1.48864610      -1.02530956
O       12.66789994       6.37815005       6.39036991      -0.85336575      -1.23172615       0.02846265
Al      14.87690001       2.20657005       6.13839007      -1.90394120      -1.05799720      -0.26169536
Al      11.88789999       2.06156005       6.09485993       0.50120996      -0.21187949       0.24633667
Al      13.38690008       2.10325000       1.24240994       0.02936383      -0.31050804      -1.32944758
O       11.91149998       2.10325000       0.20168905      -1.86713428       0.04478252      -0.44322102
O       14.80119996       2.10325000       0.08067562       1.94279617       0.00866499      -0.48231924
Al      16.06519994       2.10325000       3.20282993       1.99729122       0.22736948      -1.60221595
O       15.02119999       2.51700992       4.43047000      -2.89925332       0.02024377      -0.23388860
O       11.99419993       1.99124992       4.11862004       0.25537539       0.13746157       1.27552975
Al      11.93769994       6.05680996       3.12137997       0.48743759       0.47441224       1.05489038
O       13.38379996       6.30975000       2.08950008       0.50059392      -0.13280242      -1.08134633
O       16.07559997       6.30975000       2.19437997      -0.47455156      -0.23014818       0.02976484
Al       1.88772992       8.89821002       3.97302996      -0.44184218       3.32807608       1.11163197
Al       0.19087494      13.46920004       5.89798992       0.75533514      -1.80763561       3.91412172
O        4.87349004      11.72780007       6.49868008       1.37536750      -1.47241401      -0.09612831
O        3.11223008      16.08309996       4.24630002       0.79708698       0.75560737      -1.46615728
O        1.79732008      12.05650002       6.16225991      -0.63804838       1.78246340      -0.91335490
O        0.57598204      16.32629994       4.22748010       0.40269877       0.55303047      -0.21673499
Al       3.58740996      13.25050007       2.31538997      -0.96594623      -0.56945063       1.80023430
Al       5.01051993       9.07763003       0.29849992       0.90399708       1.86913943       1.09407764
O        0.69484402      16.03520004       0.00000000      -0.71749539      -0.79687840      -0.80139469
O        2.25788001      11.92119997       2.29926008       0.72250822       1.31107336       0.64064620
O        3.66330997      16.03520004       0.37110802      -0.22828089      -0.65030909      -1.72225143
O        4.86890993      11.91279992       2.11370007       0.20461340       0.68494120       0.59919424
Al       3.58740996      16.19499993       2.31538997      -0.08263416       0.00591353       1.42598943
Al       5.01051993      11.95489992       0.29849992       0.86138793      -2.00560912       0.95130492
O        0.69484402      13.41029996       0.00000000      -0.74299525       0.99831763      -0.97555707
O        2.25788001       9.11128001       2.29926008       0.19342948      -0.93133487      -2.02899387
O        3.66330997      13.41029996       0.37110802      -0.12834597       0.77901493      -1.83810125
O        4.86890993       9.11968998       2.11370007       0.00874325      -0.69891758       0.37808873
Al       2.06836992      12.13090005       4.24631010      -1.58575625      -1.23902151      -0.02923937
Al       0.12697698      16.16979997       5.95928994       1.83766851       0.28000382      -0.44780213
O        5.12861006       9.07047999       6.36602993      -1.68889977       1.19546139       1.08384409
O        3.29144992      13.41080003       4.25875010       0.49771055       0.14557479      -1.05890886
O        2.09641995       9.69845996       6.62436998       1.14552580      -1.81721173       0.36662100
O        0.66829794      13.52529995       4.33819003       0.97744492       0.17024189      -5.02886718
Al       2.17891005      14.72270003       0.20168905      -2.30848582      -0.20396266       1.71310616
Al       4.96132003      14.72270003       0.19362196       2.33584655       0.00257436       1.90940971
Al       2.96022994      14.82510003       5.47660997       1.26413783      -1.69356780      -0.20823927
O        4.65021994      14.75750006       6.17907002       1.70380223      -0.35848805       0.76748353
O        1.39342004      14.78089998       6.40396005       1.58351636       1.82189006       0.25041720
Al       3.62746993      10.32319992       6.07467999       0.01761104       1.24034539       0.96241610
Al       0.67360096      10.71489994       6.39919997       0.32119777      -2.25235518      -1.02193827
Al       2.21288996      10.51620003       1.24240994      -0.31716619       0.31470118      -1.01253267
O        0.73746305      10.51620003       0.20168905      -1.77984235      -0.04259835      -0.52100162
O        3.62719002      10.51620003       0.08067562       2.12014410      -0.01334792      -0.44831961
Al       4.89121999      10.51620003       3.20282993      -0.38773614      -0.58758846       0.71682081
O        3.30545005      10.33699993       4.30987997       2.99784494       1.05044058       0.01807911
O        0.92908704      10.58120004       4.12883007      -2.41037938      -0.73895255       0.51271651
Al       0.83752706      14.96050003       3.13994007      -1.90081429      -1.75527776       1.51513491
O        2.20974996      14.72270003       2.08950008       1.28704963       0.41010062      -1.34836985
O        4.90160997      14.72270003       2.19437997      -1.07001047      -0.17784531      -0.23208372
Al       7.61854997       8.90054008       4.16703995       0.30834983      -0.74369783      -0.79194893
Al       5.99485005      13.22929998       6.14167993      -1.03633510       0.12038539      -0.79166813
O       10.54949995      11.68570007       6.60210991       0.47732411      -0.60015598      -0.44660417
O        8.82432005      16.01200002       4.24961990       1.93119690      -0.33539388      -1.99209058
O        7.54528998      11.56529995       6.36427009       1.18193000       0.80847369      -0.10273435
O        6.28346994      16.11130000       4.24252009      -0.57671543      -1.53964213      -1.43053449
Al       9.17441007      13.25050007       2.31538997      -0.72591784      -0.24191492       0.07424624
Al      10.59749993       9.07763003       0.29849992       1.16318082       1.89339321       0.95668120
O        6.28183994      16.03520004       0.00000000      -0.86223574      -0.88698627      -0.88338181
O        7.84487995      11.92119997       2.29926008      -0.12552678       0.07246217      -1.52523691
O        9.25031008      16.03520004       0.37110802      -0.17963398      -0.82862030      -1.78251811
O       10.45589998      11.91279992       2.11370007      -0.04358268       0.88268025       0.38981355
Al       9.17441007      16.19499993       2.31538997      -0.25139912       0.35353882       1.03007654
Al      10.59749993      11.95489992       0.29849992       1.04154474      -2.06787112       0.82773425
O        6.28183994      13.41029996       0.00000000      -0.80088166       0.83992521      -0.82049002
O        7.84487995       9.11128001       2.29926008       0.34849981      -1.58601822       0.91454811
O        9.25031008      13.41029996       0.37110802      -0.11908693       0.58254322      -1.75996825
O       10.45589998       9.11968998       2.11370007      -0.20556842      -0.78234588       0.56466696
Al       7.72937001      11.86020000       4.03836010      -2.51014334      -0.15918047       1.48399615
Al       5.97910007      16.06459994       5.97263998      -0.11138777      -0.76816343       0.17704829
O       10.58180007       9.12728995       6.21868002      -0.23879058      -0.03423526       1.16457735
O        8.79615001      13.26139995       4.08362006       1.63750628       0.27147476       0.40031746
O        7.80460997       9.04861006       6.32117001      -0.74136045      -0.21514596      -0.50416125
O        6.31105000      13.14009997       4.33101004       0.02805874      -0.00879108      -0.03066449
Al       7.76591000      14.72270003       0.20168905      -2.31563832       0.09728436       1.98064767
Al      10.54830003      14.72270003       0.19362196       2.19917684       0.17126416       1.54434946
Al       8.71020999      14.56229996       5.22587010      -0.03474253       0.58543325       1.04700188
O       10.27560006      14.55990006       6.01866999      -0.31853765      -1.93714279       1.19522850
O        7.37894008      14.63859998       6.40891993      -2.27409916      -0.44324024      -0.11932273
Al       9.14101998      10.33509994       6.18476008       0.40491841       1.71577663      -0.54680530
Al       6.39901005      10.24790003       6.37724990      -0.61467699       2.86413798      -1.38958555
Al       7.79989008      10.51620003       1.24240994      -0.17699623      -0.09841690      -1.72265873
O        6.32445998      10.51620003       0.20168905      -1.66566928       0.03145596      -0.30521101
O        9.21418996      10.51620003       0.08067562       1.93698151       0.01641450      -0.30657827
Al      10.47819999      10.51620003       3.20282993       0.46909194      -0.16598615       0.17138425
O        8.95577004      10.54280008       4.24141003       1.92429630      -1.34592619       1.69173760
O        6.50861995      10.30920001       4.25456005      -2.27741334       1.14076926       0.06614827
Al       6.31239004      14.59010004       3.24820994       0.38855010       0.44527440       0.37634348
O        7.79675007      14.72270003       2.08950008       0.20370133      -0.25025211      -0.33010092
O       10.48860003      14.72270003       2.19437997      -2.30882793      -0.18246339      -1.17457787
Al      13.05440005       8.86204993       4.07579007       2.08240281       2.10138320      -0.63318794
Al      11.68669994      13.30879997       5.92979994      -0.31116723      -2.59126411       0.90905799
O       15.95269994      11.77210007       6.47238990       1.18318499       0.58771986       0.10051336
O       14.48900002      15.97789994       4.00185004      -1.04446132       0.17706543       3.37115911
O       13.25230003      11.91999994       6.03378994      -1.79704712      -0.13483410      -0.16083340
O       11.81809998      15.99359994       4.32268999      -0.48846004      -0.30731119      -0.17504903
Al      14.76139996      13.25050007       2.31538997       0.87253386      -0.37982782       1.00496685
Al      16.18450004       9.07763003       0.29849992       1.06280160       2.05972995       1.33054069
O       11.86879999      16.03520004       0.00000000      -0.89885123      -1.01780189      -0.82355788
O       13.43190001      11.92119997       2.29926008      -0.39493365       0.74863008      -0.70067650
O       14.83729997      16.03520004       0.37110802      -0.33914220      -0.69520598      -1.97324995
O       16.04289993      11.91279992       2.11370007      -0.30869756       0.94340382      -0.18997755
Al      14.76139996      16.19499993       2.31538997      -0.11260735       0.71033596       0.01233887
Al      16.18450004      11.95489992       0.29849992       1.12067695      -2.02246401       1.41604775
O       11.86879999      13.41029996       0.00000000      -0.94971708       0.84425903      -0.65777294
O       13.43190001       9.11128001       2.29926008      -0.58067443      -1.00713651      -0.34411858
O       14.83729997      13.41029996       0.37110802      -0.43681792       0.74052315      -1.92964280
O       16.04289993       9.11968998       2.11370007      -0.04510246      -1.01224741      -0.24900769
Al      13.27759992      11.92219994       4.08229005       0.63163640      -1.22970878       1.38829083
Al      11.35330002      15.83580000       6.07574009       1.56322369       3.04070796      -0.51298497
O       16.26150008       9.04482000       6.40458990       0.10366901       2.19416876       0.46278776
O       14.57219995      13.24719999       4.17327002       0.25037719      -0.11184571      -0.77077771
O       13.34769995       9.48654002       6.59524999      -0.57800297      -0.58766218      -0.30983722
O       11.97649997      13.19090002       4.19340002      -1.13250676      -0.02892851      -0.65778638
Al      13.35290005      14.72270003       0.20168905      -1.74172004       0.11940567       1.70395578
Al      16.13529997      14.72270003       0.19362196       2.28776127      -0.12711485       2.23454856
Al      14.40840006      14.57329995       5.27538998      -1.48541384       2.00943201      -0.13837979
O       15.82980007      14.87790002       6.27546993      -2.61608682      -2.20301581      -0.05512019
O       12.82209997      14.61050005       6.36192007       0.00281724       1.25438076       0.12127927
Al      14.74140007      10.51650003       6.10217991      -0.55163743      -1.04985597      -0.52872935
Al      11.88009992      10.44979992       6.36871010       1.40744839       1.11934623      -1.36452963
Al      13.38690008      10.51620003       1.24240994       0.33375367      -0.24190793      -1.39451055
O       11.91149998      10.51620003       0.20168905      -1.95812808       0.07488826      -0.37050760
O       14.80119996      10.51620003       0.08067562       1.79566197       0.00247330      -0.47338900
Al      16.06519994      10.51620003       3.20282993       1.47978392       0.01596402      -0.10323876
O       14.58460007      10.44990003       4.13652006      -0.35382658       0.77984488       2.82698525
O       11.96470006      10.39979995       4.29850994      -0.74016194      -0.15286336      -0.47865474
Al      11.93289992      14.46130004       3.00870997       1.06623973       1.56647833       2.91387772
O       13.38379996      14.72270003       2.08950008       0.60375679      -0.64246960      -1.68317500
O       16.07559997      14.72270003       2.19437997      -0.41370312       0.27067970      -0.81258146
240
Lattice="16.761 0.0 0.0 0.0 16.826 0.0 0.0 0.0 21.43792265" Properties=species:S:1:pos:R:3:forces:R:3 step=0 confid=0 wdir=cand1 energy=-1730.51609303 pbc="T T T"
Al       2.13907000       0.85693792       4.16149010       0.10768958      -2.34188397       0.30400667
Al       0.48739899       4.87361001       6.02331001       2.10392024      -3.01175913       0.68054496
O        5.03932002       3.38884003       6.21820002      -0.22031309      -0.24240299       1.63246643
O        3.42094993       7.77342994       4.20842007       1.09397775      -1.57405849      -0.46763556
O        2.13790997       3.51879008       6.38658997      -1.35862022      -0.49243145      -1.42597432
O        0.86799202       7.74185999       4.33378004      -0.01445173       0.17311511       1.02855251
Al       3.58740996       4.83748005       2.31538997      -0.36876534      -0.99409523       0.97462480
Al       5.01051993       0.66462700       0.29849992       1.03111854       1.97002368       1.13744102
O        0.69484402       7.62218002       0.00000000      -0.82793145      -0.80026318      -0.84534946
O        2.25788001       3.50821999       2.29926008       0.61286990       0.87022949       1.11795274
O        3.66330997       7.62218002       0.37110802      -0.12289374      -0.64433187      -1.73000269
O        4.86890993       3.49981002       2.11370007      -0.20587121       0.83480272       0.13675687
Al       3.58740996       7.78201995       2.31538997      -0.50584667       0.34110859       0.52891121
Al       5.01051993       3.54186997       0.29849992       0.99377001      -2.24839176       1.14406757
O        0.69484402       4.99731998       0.00000000      -0.81222132       0.96886452      -0.90034796
O        2.25788001       0.69827900       2.29926008       0.15071719      -0.04789522       0.60100348
O        3.66330997       4.99731998       0.37110802      -0.16806860       0.92287312      -1.77133312
O        4.86890993       0.70669200       2.11370007      -0.19419428      -0.52128144       0.23969827
Al       2.17212001       3.68659999       4.26708001      -0.90815520      -1.38634393      -0.34361214
Al       0.66963095       7.50458008       6.11311004      -1.37943708       0.65668945       1.77562026
O        5.34970005       0.77666595       6.96012000      -0.33579547       1.58004450      -1.55924902
O        3.42375003       4.92156007       4.22437010       0.51126938       1.81974975      -0.44817016
O        2.26517004       0.96152901       6.25799009      -0.80953169      -0.10317537      -0.03323889
O        0.71378395       4.86432997       4.19193002       0.52160187      -0.00152606       1.46296885
Al       2.17891005       6.30975000       0.20168905      -2.35850715      -0.15644882       1.83450781
Al       4.96132003       6.30975000       0.19362196       2.16201377      -0.21047300       1.47935459
Al       3.43563995       6.39306007       5.33938004      -2.52292108      -1.23441644       0.18746373
O        4.82092000       6.27867995       6.34773009       0.39651386       1.12382886       0.43626565
O        1.83539001       6.21253997       6.53444990       0.83530038       0.57867436      -1.81131953
Al       3.67552003       2.19333001       6.25680007      -1.34558356       0.19166718       0.89676286
Al       0.72911507       1.98276002       6.27509005       2.27034466       1.32427775       0.07368689
Al       2.21288996       2.10325000       1.24240994      -0.03942726       0.15198620      -1.40041513
O        0.73746305       2.10325000       0.20168905      -1.82263478       0.04195016      -0.42889740
O        3.62719002       2.10325000       0.08067562       1.97467115       0.04117622      -0.48941704
Al       4.89121999       2.10325000       3.20282993      -0.32563428       0.01996455       0.19513613
O        3.46886008       2.20931993       4.50651010       1.05284047      -0.22606892      -3.38986352
O        0.89496298       2.22853000       4.29603000      -1.09703478      -0.97679362      -0.22842708
Al       0.83754298       6.36090003       3.30525990      -0.99921649      -0.67326642      -1.96883611
O        2.20974996       6.30975000       2.08950008       0.85664080       0.28563430      -0.00285981
O        4.90160997       6.30975000       2.19437997      -4.26343971       0.10943503      -2.57606461
Al       7.85946001       0.77372493       4.23191989      -2.52558891      -1.78618835      -1.89261891
Al       5.93554008       4.97550002       5.88073003       1.79119536      -0.96248372      -0.16077986